V -t * -v 1.0a5 -a 0
A -t * -n 1 -p 0 -o 0x7fffffff -c 30 -a 1
A -t * -h 1 -m 1073741823 -s 0
c -t * -i 1 -n blue
c -t * -i 2 -n red
n -t * -a 4 -s 4 -S UP -v circle -c black -i black
n -t * -a 0 -s 0 -S UP -v circle -c black -i black
n -t * -a 5 -s 5 -S UP -v circle -c black -i black
n -t * -a 1 -s 1 -S UP -v circle -c black -i black
n -t * -a 2 -s 2 -S UP -v circle -c black -i black
n -t * -a 3 -s 3 -S UP -v circle -c black -i black
l -t * -s 1 -d 0 -S UP -r 10000000 -D 0.0050000000000000001 -c black -o left
l -t * -s 1 -d 2 -S UP -r 10000000 -D 0.0050000000000000001 -c black -o right-up
l -t * -s 1 -d 3 -S UP -r 10000000 -D 0.0050000000000000001 -c black -o right-down
l -t * -s 4 -d 5 -S UP -r 10000000 -D 0.0050000000000000001 -c black -o right
l -t * -s 4 -d 2 -S UP -r 10000000 -D 0.0050000000000000001 -c black -o left-up
l -t * -s 4 -d 3 -S UP -r 10000000 -D 0.0050000000000000001 -c black -o left-down
+ -t 2 -s 0 -d 1 -p cbr -e 210 -c 1 -i 0 -a 1 -x {0.0 3.0 0 ------- null}
- -t 2 -s 0 -d 1 -p cbr -e 210 -c 1 -i 0 -a 1 -x {0.0 3.0 0 ------- null}
h -t 2 -s 0 -d 1 -p cbr -e 210 -c 1 -i 0 -a 1 -x {0.0 3.0 -1 ------- null}
+ -t 2.00375 -s 0 -d 1 -p cbr -e 210 -c 1 -i 1 -a 1 -x {0.0 3.0 1 ------- null}
- -t 2.00375 -s 0 -d 1 -p cbr -e 210 -c 1 -i 1 -a 1 -x {0.0 3.0 1 ------- null}
h -t 2.00375 -s 0 -d 1 -p cbr -e 210 -c 1 -i 1 -a 1 -x {0.0 3.0 -1 ------- null}
r -t 2.005168 -s 0 -d 1 -p cbr -e 210 -c 1 -i 0 -a 1 -x {0.0 3.0 0 ------- null}
+ -t 2.005168 -s 1 -d 3 -p cbr -e 210 -c 1 -i 0 -a 1 -x {0.0 3.0 0 ------- null}
- -t 2.005168 -s 1 -d 3 -p cbr -e 210 -c 1 -i 0 -a 1 -x {0.0 3.0 0 ------- null}
h -t 2.005168 -s 1 -d 3 -p cbr -e 210 -c 1 -i 0 -a 1 -x {0.0 3.0 -1 ------- null}
+ -t 2.0075 -s 0 -d 1 -p cbr -e 210 -c 1 -i 2 -a 1 -x {0.0 3.0 2 ------- null}
- -t 2.0075 -s 0 -d 1 -p cbr -e 210 -c 1 -i 2 -a 1 -x {0.0 3.0 2 ------- null}
h -t 2.0075 -s 0 -d 1 -p cbr -e 210 -c 1 -i 2 -a 1 -x {0.0 3.0 -1 ------- null}
r -t 2.008918 -s 0 -d 1 -p cbr -e 210 -c 1 -i 1 -a 1 -x {0.0 3.0 1 ------- null}
+ -t 2.008918 -s 1 -d 3 -p cbr -e 210 -c 1 -i 1 -a 1 -x {0.0 3.0 1 ------- null}
- -t 2.008918 -s 1 -d 3 -p cbr -e 210 -c 1 -i 1 -a 1 -x {0.0 3.0 1 ------- null}
h -t 2.008918 -s 1 -d 3 -p cbr -e 210 -c 1 -i 1 -a 1 -x {0.0 3.0 -1 ------- null}
r -t 2.010336 -s 1 -d 3 -p cbr -e 210 -c 1 -i 0 -a 1 -x {0.0 3.0 0 ------- null}
+ -t 2.01125 -s 0 -d 1 -p cbr -e 210 -c 1 -i 3 -a 1 -x {0.0 3.0 3 ------- null}
- -t 2.01125 -s 0 -d 1 -p cbr -e 210 -c 1 -i 3 -a 1 -x {0.0 3.0 3 ------- null}
h -t 2.01125 -s 0 -d 1 -p cbr -e 210 -c 1 -i 3 -a 1 -x {0.0 3.0 -1 ------- null}
r -t 2.012668 -s 0 -d 1 -p cbr -e 210 -c 1 -i 2 -a 1 -x {0.0 3.0 2 ------- null}
+ -t 2.012668 -s 1 -d 3 -p cbr -e 210 -c 1 -i 2 -a 1 -x {0.0 3.0 2 ------- null}
- -t 2.012668 -s 1 -d 3 -p cbr -e 210 -c 1 -i 2 -a 1 -x {0.0 3.0 2 ------- null}
h -t 2.012668 -s 1 -d 3 -p cbr -e 210 -c 1 -i 2 -a 1 -x {0.0 3.0 -1 ------- null}
r -t 2.014086 -s 1 -d 3 -p cbr -e 210 -c 1 -i 1 -a 1 -x {0.0 3.0 1 ------- null}
+ -t 2.015 -s 0 -d 1 -p cbr -e 210 -c 1 -i 4 -a 1 -x {0.0 3.0 4 ------- null}
- -t 2.015 -s 0 -d 1 -p cbr -e 210 -c 1 -i 4 -a 1 -x {0.0 3.0 4 ------- null}
h -t 2.015 -s 0 -d 1 -p cbr -e 210 -c 1 -i 4 -a 1 -x {0.0 3.0 -1 ------- null}
r -t 2.016418 -s 0 -d 1 -p cbr -e 210 -c 1 -i 3 -a 1 -x {0.0 3.0 3 ------- null}
+ -t 2.016418 -s 1 -d 3 -p cbr -e 210 -c 1 -i 3 -a 1 -x {0.0 3.0 3 ------- null}
- -t 2.016418 -s 1 -d 3 -p cbr -e 210 -c 1 -i 3 -a 1 -x {0.0 3.0 3 ------- null}
h -t 2.016418 -s 1 -d 3 -p cbr -e 210 -c 1 -i 3 -a 1 -x {0.0 3.0 -1 ------- null}
r -t 2.017836 -s 1 -d 3 -p cbr -e 210 -c 1 -i 2 -a 1 -x {0.0 3.0 2 ------- null}
+ -t 2.01875 -s 0 -d 1 -p cbr -e 210 -c 1 -i 5 -a 1 -x {0.0 3.0 5 ------- null}
- -t 2.01875 -s 0 -d 1 -p cbr -e 210 -c 1 -i 5 -a 1 -x {0.0 3.0 5 ------- null}
h -t 2.01875 -s 0 -d 1 -p cbr -e 210 -c 1 -i 5 -a 1 -x {0.0 3.0 -1 ------- null}
r -t 2.020168 -s 0 -d 1 -p cbr -e 210 -c 1 -i 4 -a 1 -x {0.0 3.0 4 ------- null}
+ -t 2.020168 -s 1 -d 3 -p cbr -e 210 -c 1 -i 4 -a 1 -x {0.0 3.0 4 ------- null}
- -t 2.020168 -s 1 -d 3 -p cbr -e 210 -c 1 -i 4 -a 1 -x {0.0 3.0 4 ------- null}
h -t 2.020168 -s 1 -d 3 -p cbr -e 210 -c 1 -i 4 -a 1 -x {0.0 3.0 -1 ------- null}
r -t 2.021586 -s 1 -d 3 -p cbr -e 210 -c 1 -i 3 -a 1 -x {0.0 3.0 3 ------- null}
+ -t 2.0225 -s 0 -d 1 -p cbr -e 210 -c 1 -i 6 -a 1 -x {0.0 3.0 6 ------- null}
- -t 2.0225 -s 0 -d 1 -p cbr -e 210 -c 1 -i 6 -a 1 -x {0.0 3.0 6 ------- null}
h -t 2.0225 -s 0 -d 1 -p cbr -e 210 -c 1 -i 6 -a 1 -x {0.0 3.0 -1 ------- null}
r -t 2.023918 -s 0 -d 1 -p cbr -e 210 -c 1 -i 5 -a 1 -x {0.0 3.0 5 ------- null}
+ -t 2.023918 -s 1 -d 3 -p cbr -e 210 -c 1 -i 5 -a 1 -x {0.0 3.0 5 ------- null}
- -t 2.023918 -s 1 -d 3 -p cbr -e 210 -c 1 -i 5 -a 1 -x {0.0 3.0 5 ------- null}
h -t 2.023918 -s 1 -d 3 -p cbr -e 210 -c 1 -i 5 -a 1 -x {0.0 3.0 -1 ------- null}
r -t 2.025336 -s 1 -d 3 -p cbr -e 210 -c 1 -i 4 -a 1 -x {0.0 3.0 4 ------- null}
+ -t 2.02625 -s 0 -d 1 -p cbr -e 210 -c 1 -i 7 -a 1 -x {0.0 3.0 7 ------- null}
- -t 2.02625 -s 0 -d 1 -p cbr -e 210 -c 1 -i 7 -a 1 -x {0.0 3.0 7 ------- null}
h -t 2.02625 -s 0 -d 1 -p cbr -e 210 -c 1 -i 7 -a 1 -x {0.0 3.0 -1 ------- null}
r -t 2.027668 -s 0 -d 1 -p cbr -e 210 -c 1 -i 6 -a 1 -x {0.0 3.0 6 ------- null}
+ -t 2.027668 -s 1 -d 3 -p cbr -e 210 -c 1 -i 6 -a 1 -x {0.0 3.0 6 ------- null}
- -t 2.027668 -s 1 -d 3 -p cbr -e 210 -c 1 -i 6 -a 1 -x {0.0 3.0 6 ------- null}
h -t 2.027668 -s 1 -d 3 -p cbr -e 210 -c 1 -i 6 -a 1 -x {0.0 3.0 -1 ------- null}
r -t 2.029086 -s 1 -d 3 -p cbr -e 210 -c 1 -i 5 -a 1 -x {0.0 3.0 5 ------- null}
+ -t 2.03 -s 0 -d 1 -p cbr -e 210 -c 1 -i 8 -a 1 -x {0.0 3.0 8 ------- null}
- -t 2.03 -s 0 -d 1 -p cbr -e 210 -c 1 -i 8 -a 1 -x {0.0 3.0 8 ------- null}
h -t 2.03 -s 0 -d 1 -p cbr -e 210 -c 1 -i 8 -a 1 -x {0.0 3.0 -1 ------- null}
r -t 2.031418 -s 0 -d 1 -p cbr -e 210 -c 1 -i 7 -a 1 -x {0.0 3.0 7 ------- null}
+ -t 2.031418 -s 1 -d 3 -p cbr -e 210 -c 1 -i 7 -a 1 -x {0.0 3.0 7 ------- null}
- -t 2.031418 -s 1 -d 3 -p cbr -e 210 -c 1 -i 7 -a 1 -x {0.0 3.0 7 ------- null}
h -t 2.031418 -s 1 -d 3 -p cbr -e 210 -c 1 -i 7 -a 1 -x {0.0 3.0 -1 ------- null}
r -t 2.032836 -s 1 -d 3 -p cbr -e 210 -c 1 -i 6 -a 1 -x {0.0 3.0 6 ------- null}
+ -t 2.03375 -s 0 -d 1 -p cbr -e 210 -c 1 -i 9 -a 1 -x {0.0 3.0 9 ------- null}
- -t 2.03375 -s 0 -d 1 -p cbr -e 210 -c 1 -i 9 -a 1 -x {0.0 3.0 9 ------- null}
h -t 2.03375 -s 0 -d 1 -p cbr -e 210 -c 1 -i 9 -a 1 -x {0.0 3.0 -1 ------- null}
r -t 2.035168 -s 0 -d 1 -p cbr -e 210 -c 1 -i 8 -a 1 -x {0.0 3.0 8 ------- null}
+ -t 2.035168 -s 1 -d 3 -p cbr -e 210 -c 1 -i 8 -a 1 -x {0.0 3.0 8 ------- null}
- -t 2.035168 -s 1 -d 3 -p cbr -e 210 -c 1 -i 8 -a 1 -x {0.0 3.0 8 ------- null}
h -t 2.035168 -s 1 -d 3 -p cbr -e 210 -c 1 -i 8 -a 1 -x {0.0 3.0 -1 ------- null}
r -t 2.036586 -s 1 -d 3 -p cbr -e 210 -c 1 -i 7 -a 1 -x {0.0 3.0 7 ------- null}
+ -t 2.0375 -s 0 -d 1 -p cbr -e 210 -c 1 -i 10 -a 1 -x {0.0 3.0 10 ------- null}
- -t 2.0375 -s 0 -d 1 -p cbr -e 210 -c 1 -i 10 -a 1 -x {0.0 3.0 10 ------- null}
h -t 2.0375 -s 0 -d 1 -p cbr -e 210 -c 1 -i 10 -a 1 -x {0.0 3.0 -1 ------- null}
r -t 2.038918 -s 0 -d 1 -p cbr -e 210 -c 1 -i 9 -a 1 -x {0.0 3.0 9 ------- null}
+ -t 2.038918 -s 1 -d 3 -p cbr -e 210 -c 1 -i 9 -a 1 -x {0.0 3.0 9 ------- null}
- -t 2.038918 -s 1 -d 3 -p cbr -e 210 -c 1 -i 9 -a 1 -x {0.0 3.0 9 ------- null}
h -t 2.038918 -s 1 -d 3 -p cbr -e 210 -c 1 -i 9 -a 1 -x {0.0 3.0 -1 ------- null}
r -t 2.040336 -s 1 -d 3 -p cbr -e 210 -c 1 -i 8 -a 1 -x {0.0 3.0 8 ------- null}
+ -t 2.04125 -s 0 -d 1 -p cbr -e 210 -c 1 -i 11 -a 1 -x {0.0 3.0 11 ------- null}
- -t 2.04125 -s 0 -d 1 -p cbr -e 210 -c 1 -i 11 -a 1 -x {0.0 3.0 11 ------- null}
h -t 2.04125 -s 0 -d 1 -p cbr -e 210 -c 1 -i 11 -a 1 -x {0.0 3.0 -1 ------- null}
r -t 2.042668 -s 0 -d 1 -p cbr -e 210 -c 1 -i 10 -a 1 -x {0.0 3.0 10 ------- null}
+ -t 2.042668 -s 1 -d 3 -p cbr -e 210 -c 1 -i 10 -a 1 -x {0.0 3.0 10 ------- null}
- -t 2.042668 -s 1 -d 3 -p cbr -e 210 -c 1 -i 10 -a 1 -x {0.0 3.0 10 ------- null}
h -t 2.042668 -s 1 -d 3 -p cbr -e 210 -c 1 -i 10 -a 1 -x {0.0 3.0 -1 ------- null}
r -t 2.044086 -s 1 -d 3 -p cbr -e 210 -c 1 -i 9 -a 1 -x {0.0 3.0 9 ------- null}
+ -t 2.045 -s 0 -d 1 -p cbr -e 210 -c 1 -i 12 -a 1 -x {0.0 3.0 12 ------- null}
- -t 2.045 -s 0 -d 1 -p cbr -e 210 -c 1 -i 12 -a 1 -x {0.0 3.0 12 ------- null}
h -t 2.045 -s 0 -d 1 -p cbr -e 210 -c 1 -i 12 -a 1 -x {0.0 3.0 -1 ------- null}
r -t 2.046418 -s 0 -d 1 -p cbr -e 210 -c 1 -i 11 -a 1 -x {0.0 3.0 11 ------- null}
+ -t 2.046418 -s 1 -d 3 -p cbr -e 210 -c 1 -i 11 -a 1 -x {0.0 3.0 11 ------- null}
- -t 2.046418 -s 1 -d 3 -p cbr -e 210 -c 1 -i 11 -a 1 -x {0.0 3.0 11 ------- null}
h -t 2.046418 -s 1 -d 3 -p cbr -e 210 -c 1 -i 11 -a 1 -x {0.0 3.0 -1 ------- null}
r -t 2.047836 -s 1 -d 3 -p cbr -e 210 -c 1 -i 10 -a 1 -x {0.0 3.0 10 ------- null}
+ -t 2.04875 -s 0 -d 1 -p cbr -e 210 -c 1 -i 13 -a 1 -x {0.0 3.0 13 ------- null}
- -t 2.04875 -s 0 -d 1 -p cbr -e 210 -c 1 -i 13 -a 1 -x {0.0 3.0 13 ------- null}
h -t 2.04875 -s 0 -d 1 -p cbr -e 210 -c 1 -i 13 -a 1 -x {0.0 3.0 -1 ------- null}
r -t 2.050168 -s 0 -d 1 -p cbr -e 210 -c 1 -i 12 -a 1 -x {0.0 3.0 12 ------- null}
+ -t 2.050168 -s 1 -d 3 -p cbr -e 210 -c 1 -i 12 -a 1 -x {0.0 3.0 12 ------- null}
- -t 2.050168 -s 1 -d 3 -p cbr -e 210 -c 1 -i 12 -a 1 -x {0.0 3.0 12 ------- null}
h -t 2.050168 -s 1 -d 3 -p cbr -e 210 -c 1 -i 12 -a 1 -x {0.0 3.0 -1 ------- null}
r -t 2.051586 -s 1 -d 3 -p cbr -e 210 -c 1 -i 11 -a 1 -x {0.0 3.0 11 ------- null}
+ -t 2.0525 -s 0 -d 1 -p cbr -e 210 -c 1 -i 14 -a 1 -x {0.0 3.0 14 ------- null}
- -t 2.0525 -s 0 -d 1 -p cbr -e 210 -c 1 -i 14 -a 1 -x {0.0 3.0 14 ------- null}
h -t 2.0525 -s 0 -d 1 -p cbr -e 210 -c 1 -i 14 -a 1 -x {0.0 3.0 -1 ------- null}
r -t 2.053918 -s 0 -d 1 -p cbr -e 210 -c 1 -i 13 -a 1 -x {0.0 3.0 13 ------- null}
+ -t 2.053918 -s 1 -d 3 -p cbr -e 210 -c 1 -i 13 -a 1 -x {0.0 3.0 13 ------- null}
- -t 2.053918 -s 1 -d 3 -p cbr -e 210 -c 1 -i 13 -a 1 -x {0.0 3.0 13 ------- null}
h -t 2.053918 -s 1 -d 3 -p cbr -e 210 -c 1 -i 13 -a 1 -x {0.0 3.0 -1 ------- null}
r -t 2.055336 -s 1 -d 3 -p cbr -e 210 -c 1 -i 12 -a 1 -x {0.0 3.0 12 ------- null}
+ -t 2.05625 -s 0 -d 1 -p cbr -e 210 -c 1 -i 15 -a 1 -x {0.0 3.0 15 ------- null}
- -t 2.05625 -s 0 -d 1 -p cbr -e 210 -c 1 -i 15 -a 1 -x {0.0 3.0 15 ------- null}
h -t 2.05625 -s 0 -d 1 -p cbr -e 210 -c 1 -i 15 -a 1 -x {0.0 3.0 -1 ------- null}
r -t 2.057668 -s 0 -d 1 -p cbr -e 210 -c 1 -i 14 -a 1 -x {0.0 3.0 14 ------- null}
+ -t 2.057668 -s 1 -d 3 -p cbr -e 210 -c 1 -i 14 -a 1 -x {0.0 3.0 14 ------- null}
- -t 2.057668 -s 1 -d 3 -p cbr -e 210 -c 1 -i 14 -a 1 -x {0.0 3.0 14 ------- null}
h -t 2.057668 -s 1 -d 3 -p cbr -e 210 -c 1 -i 14 -a 1 -x {0.0 3.0 -1 ------- null}
r -t 2.059086 -s 1 -d 3 -p cbr -e 210 -c 1 -i 13 -a 1 -x {0.0 3.0 13 ------- null}
+ -t 2.06 -s 0 -d 1 -p cbr -e 210 -c 1 -i 16 -a 1 -x {0.0 3.0 16 ------- null}
- -t 2.06 -s 0 -d 1 -p cbr -e 210 -c 1 -i 16 -a 1 -x {0.0 3.0 16 ------- null}
h -t 2.06 -s 0 -d 1 -p cbr -e 210 -c 1 -i 16 -a 1 -x {0.0 3.0 -1 ------- null}
r -t 2.061418 -s 0 -d 1 -p cbr -e 210 -c 1 -i 15 -a 1 -x {0.0 3.0 15 ------- null}
+ -t 2.061418 -s 1 -d 3 -p cbr -e 210 -c 1 -i 15 -a 1 -x {0.0 3.0 15 ------- null}
- -t 2.061418 -s 1 -d 3 -p cbr -e 210 -c 1 -i 15 -a 1 -x {0.0 3.0 15 ------- null}
h -t 2.061418 -s 1 -d 3 -p cbr -e 210 -c 1 -i 15 -a 1 -x {0.0 3.0 -1 ------- null}
r -t 2.062836 -s 1 -d 3 -p cbr -e 210 -c 1 -i 14 -a 1 -x {0.0 3.0 14 ------- null}
+ -t 2.06375 -s 0 -d 1 -p cbr -e 210 -c 1 -i 17 -a 1 -x {0.0 3.0 17 ------- null}
- -t 2.06375 -s 0 -d 1 -p cbr -e 210 -c 1 -i 17 -a 1 -x {0.0 3.0 17 ------- null}
h -t 2.06375 -s 0 -d 1 -p cbr -e 210 -c 1 -i 17 -a 1 -x {0.0 3.0 -1 ------- null}
r -t 2.065168 -s 0 -d 1 -p cbr -e 210 -c 1 -i 16 -a 1 -x {0.0 3.0 16 ------- null}
+ -t 2.065168 -s 1 -d 3 -p cbr -e 210 -c 1 -i 16 -a 1 -x {0.0 3.0 16 ------- null}
- -t 2.065168 -s 1 -d 3 -p cbr -e 210 -c 1 -i 16 -a 1 -x {0.0 3.0 16 ------- null}
h -t 2.065168 -s 1 -d 3 -p cbr -e 210 -c 1 -i 16 -a 1 -x {0.0 3.0 -1 ------- null}
r -t 2.066586 -s 1 -d 3 -p cbr -e 210 -c 1 -i 15 -a 1 -x {0.0 3.0 15 ------- null}
+ -t 2.0675 -s 0 -d 1 -p cbr -e 210 -c 1 -i 18 -a 1 -x {0.0 3.0 18 ------- null}
- -t 2.0675 -s 0 -d 1 -p cbr -e 210 -c 1 -i 18 -a 1 -x {0.0 3.0 18 ------- null}
h -t 2.0675 -s 0 -d 1 -p cbr -e 210 -c 1 -i 18 -a 1 -x {0.0 3.0 -1 ------- null}
r -t 2.068918 -s 0 -d 1 -p cbr -e 210 -c 1 -i 17 -a 1 -x {0.0 3.0 17 ------- null}
+ -t 2.068918 -s 1 -d 3 -p cbr -e 210 -c 1 -i 17 -a 1 -x {0.0 3.0 17 ------- null}
- -t 2.068918 -s 1 -d 3 -p cbr -e 210 -c 1 -i 17 -a 1 -x {0.0 3.0 17 ------- null}
h -t 2.068918 -s 1 -d 3 -p cbr -e 210 -c 1 -i 17 -a 1 -x {0.0 3.0 -1 ------- null}
r -t 2.070336 -s 1 -d 3 -p cbr -e 210 -c 1 -i 16 -a 1 -x {0.0 3.0 16 ------- null}
+ -t 2.07125 -s 0 -d 1 -p cbr -e 210 -c 1 -i 19 -a 1 -x {0.0 3.0 19 ------- null}
- -t 2.07125 -s 0 -d 1 -p cbr -e 210 -c 1 -i 19 -a 1 -x {0.0 3.0 19 ------- null}
h -t 2.07125 -s 0 -d 1 -p cbr -e 210 -c 1 -i 19 -a 1 -x {0.0 3.0 -1 ------- null}
r -t 2.072668 -s 0 -d 1 -p cbr -e 210 -c 1 -i 18 -a 1 -x {0.0 3.0 18 ------- null}
+ -t 2.072668 -s 1 -d 3 -p cbr -e 210 -c 1 -i 18 -a 1 -x {0.0 3.0 18 ------- null}
- -t 2.072668 -s 1 -d 3 -p cbr -e 210 -c 1 -i 18 -a 1 -x {0.0 3.0 18 ------- null}
h -t 2.072668 -s 1 -d 3 -p cbr -e 210 -c 1 -i 18 -a 1 -x {0.0 3.0 -1 ------- null}
r -t 2.074086 -s 1 -d 3 -p cbr -e 210 -c 1 -i 17 -a 1 -x {0.0 3.0 17 ------- null}
+ -t 2.075 -s 0 -d 1 -p cbr -e 210 -c 1 -i 20 -a 1 -x {0.0 3.0 20 ------- null}
- -t 2.075 -s 0 -d 1 -p cbr -e 210 -c 1 -i 20 -a 1 -x {0.0 3.0 20 ------- null}
h -t 2.075 -s 0 -d 1 -p cbr -e 210 -c 1 -i 20 -a 1 -x {0.0 3.0 -1 ------- null}
r -t 2.076418 -s 0 -d 1 -p cbr -e 210 -c 1 -i 19 -a 1 -x {0.0 3.0 19 ------- null}
+ -t 2.076418 -s 1 -d 3 -p cbr -e 210 -c 1 -i 19 -a 1 -x {0.0 3.0 19 ------- null}
- -t 2.076418 -s 1 -d 3 -p cbr -e 210 -c 1 -i 19 -a 1 -x {0.0 3.0 19 ------- null}
h -t 2.076418 -s 1 -d 3 -p cbr -e 210 -c 1 -i 19 -a 1 -x {0.0 3.0 -1 ------- null}
r -t 2.077836 -s 1 -d 3 -p cbr -e 210 -c 1 -i 18 -a 1 -x {0.0 3.0 18 ------- null}
+ -t 2.07875 -s 0 -d 1 -p cbr -e 210 -c 1 -i 21 -a 1 -x {0.0 3.0 21 ------- null}
- -t 2.07875 -s 0 -d 1 -p cbr -e 210 -c 1 -i 21 -a 1 -x {0.0 3.0 21 ------- null}
h -t 2.07875 -s 0 -d 1 -p cbr -e 210 -c 1 -i 21 -a 1 -x {0.0 3.0 -1 ------- null}
r -t 2.080168 -s 0 -d 1 -p cbr -e 210 -c 1 -i 20 -a 1 -x {0.0 3.0 20 ------- null}
+ -t 2.080168 -s 1 -d 3 -p cbr -e 210 -c 1 -i 20 -a 1 -x {0.0 3.0 20 ------- null}
- -t 2.080168 -s 1 -d 3 -p cbr -e 210 -c 1 -i 20 -a 1 -x {0.0 3.0 20 ------- null}
h -t 2.080168 -s 1 -d 3 -p cbr -e 210 -c 1 -i 20 -a 1 -x {0.0 3.0 -1 ------- null}
r -t 2.081586 -s 1 -d 3 -p cbr -e 210 -c 1 -i 19 -a 1 -x {0.0 3.0 19 ------- null}
+ -t 2.0825 -s 0 -d 1 -p cbr -e 210 -c 1 -i 22 -a 1 -x {0.0 3.0 22 ------- null}
- -t 2.0825 -s 0 -d 1 -p cbr -e 210 -c 1 -i 22 -a 1 -x {0.0 3.0 22 ------- null}
h -t 2.0825 -s 0 -d 1 -p cbr -e 210 -c 1 -i 22 -a 1 -x {0.0 3.0 -1 ------- null}
r -t 2.083918 -s 0 -d 1 -p cbr -e 210 -c 1 -i 21 -a 1 -x {0.0 3.0 21 ------- null}
+ -t 2.083918 -s 1 -d 3 -p cbr -e 210 -c 1 -i 21 -a 1 -x {0.0 3.0 21 ------- null}
- -t 2.083918 -s 1 -d 3 -p cbr -e 210 -c 1 -i 21 -a 1 -x {0.0 3.0 21 ------- null}
h -t 2.083918 -s 1 -d 3 -p cbr -e 210 -c 1 -i 21 -a 1 -x {0.0 3.0 -1 ------- null}
r -t 2.085336 -s 1 -d 3 -p cbr -e 210 -c 1 -i 20 -a 1 -x {0.0 3.0 20 ------- null}
+ -t 2.08625 -s 0 -d 1 -p cbr -e 210 -c 1 -i 23 -a 1 -x {0.0 3.0 23 ------- null}
- -t 2.08625 -s 0 -d 1 -p cbr -e 210 -c 1 -i 23 -a 1 -x {0.0 3.0 23 ------- null}
h -t 2.08625 -s 0 -d 1 -p cbr -e 210 -c 1 -i 23 -a 1 -x {0.0 3.0 -1 ------- null}
r -t 2.087668 -s 0 -d 1 -p cbr -e 210 -c 1 -i 22 -a 1 -x {0.0 3.0 22 ------- null}
+ -t 2.087668 -s 1 -d 3 -p cbr -e 210 -c 1 -i 22 -a 1 -x {0.0 3.0 22 ------- null}
- -t 2.087668 -s 1 -d 3 -p cbr -e 210 -c 1 -i 22 -a 1 -x {0.0 3.0 22 ------- null}
h -t 2.087668 -s 1 -d 3 -p cbr -e 210 -c 1 -i 22 -a 1 -x {0.0 3.0 -1 ------- null}
r -t 2.089086 -s 1 -d 3 -p cbr -e 210 -c 1 -i 21 -a 1 -x {0.0 3.0 21 ------- null}
+ -t 2.09 -s 0 -d 1 -p cbr -e 210 -c 1 -i 24 -a 1 -x {0.0 3.0 24 ------- null}
- -t 2.09 -s 0 -d 1 -p cbr -e 210 -c 1 -i 24 -a 1 -x {0.0 3.0 24 ------- null}
h -t 2.09 -s 0 -d 1 -p cbr -e 210 -c 1 -i 24 -a 1 -x {0.0 3.0 -1 ------- null}
r -t 2.091418 -s 0 -d 1 -p cbr -e 210 -c 1 -i 23 -a 1 -x {0.0 3.0 23 ------- null}
+ -t 2.091418 -s 1 -d 3 -p cbr -e 210 -c 1 -i 23 -a 1 -x {0.0 3.0 23 ------- null}
- -t 2.091418 -s 1 -d 3 -p cbr -e 210 -c 1 -i 23 -a 1 -x {0.0 3.0 23 ------- null}
h -t 2.091418 -s 1 -d 3 -p cbr -e 210 -c 1 -i 23 -a 1 -x {0.0 3.0 -1 ------- null}
r -t 2.092836 -s 1 -d 3 -p cbr -e 210 -c 1 -i 22 -a 1 -x {0.0 3.0 22 ------- null}
+ -t 2.09375 -s 0 -d 1 -p cbr -e 210 -c 1 -i 25 -a 1 -x {0.0 3.0 25 ------- null}
- -t 2.09375 -s 0 -d 1 -p cbr -e 210 -c 1 -i 25 -a 1 -x {0.0 3.0 25 ------- null}
h -t 2.09375 -s 0 -d 1 -p cbr -e 210 -c 1 -i 25 -a 1 -x {0.0 3.0 -1 ------- null}
r -t 2.095168 -s 0 -d 1 -p cbr -e 210 -c 1 -i 24 -a 1 -x {0.0 3.0 24 ------- null}
+ -t 2.095168 -s 1 -d 3 -p cbr -e 210 -c 1 -i 24 -a 1 -x {0.0 3.0 24 ------- null}
- -t 2.095168 -s 1 -d 3 -p cbr -e 210 -c 1 -i 24 -a 1 -x {0.0 3.0 24 ------- null}
h -t 2.095168 -s 1 -d 3 -p cbr -e 210 -c 1 -i 24 -a 1 -x {0.0 3.0 -1 ------- null}
r -t 2.096586 -s 1 -d 3 -p cbr -e 210 -c 1 -i 23 -a 1 -x {0.0 3.0 23 ------- null}
+ -t 2.0975 -s 0 -d 1 -p cbr -e 210 -c 1 -i 26 -a 1 -x {0.0 3.0 26 ------- null}
- -t 2.0975 -s 0 -d 1 -p cbr -e 210 -c 1 -i 26 -a 1 -x {0.0 3.0 26 ------- null}
h -t 2.0975 -s 0 -d 1 -p cbr -e 210 -c 1 -i 26 -a 1 -x {0.0 3.0 -1 ------- null}
r -t 2.098918 -s 0 -d 1 -p cbr -e 210 -c 1 -i 25 -a 1 -x {0.0 3.0 25 ------- null}
+ -t 2.098918 -s 1 -d 3 -p cbr -e 210 -c 1 -i 25 -a 1 -x {0.0 3.0 25 ------- null}
- -t 2.098918 -s 1 -d 3 -p cbr -e 210 -c 1 -i 25 -a 1 -x {0.0 3.0 25 ------- null}
h -t 2.098918 -s 1 -d 3 -p cbr -e 210 -c 1 -i 25 -a 1 -x {0.0 3.0 -1 ------- null}
r -t 2.100336 -s 1 -d 3 -p cbr -e 210 -c 1 -i 24 -a 1 -x {0.0 3.0 24 ------- null}
+ -t 2.10125 -s 0 -d 1 -p cbr -e 210 -c 1 -i 27 -a 1 -x {0.0 3.0 27 ------- null}
- -t 2.10125 -s 0 -d 1 -p cbr -e 210 -c 1 -i 27 -a 1 -x {0.0 3.0 27 ------- null}
h -t 2.10125 -s 0 -d 1 -p cbr -e 210 -c 1 -i 27 -a 1 -x {0.0 3.0 -1 ------- null}
r -t 2.102668 -s 0 -d 1 -p cbr -e 210 -c 1 -i 26 -a 1 -x {0.0 3.0 26 ------- null}
+ -t 2.102668 -s 1 -d 3 -p cbr -e 210 -c 1 -i 26 -a 1 -x {0.0 3.0 26 ------- null}
- -t 2.102668 -s 1 -d 3 -p cbr -e 210 -c 1 -i 26 -a 1 -x {0.0 3.0 26 ------- null}
h -t 2.102668 -s 1 -d 3 -p cbr -e 210 -c 1 -i 26 -a 1 -x {0.0 3.0 -1 ------- null}
r -t 2.104086 -s 1 -d 3 -p cbr -e 210 -c 1 -i 25 -a 1 -x {0.0 3.0 25 ------- null}
+ -t 2.105 -s 0 -d 1 -p cbr -e 210 -c 1 -i 28 -a 1 -x {0.0 3.0 28 ------- null}
- -t 2.105 -s 0 -d 1 -p cbr -e 210 -c 1 -i 28 -a 1 -x {0.0 3.0 28 ------- null}
h -t 2.105 -s 0 -d 1 -p cbr -e 210 -c 1 -i 28 -a 1 -x {0.0 3.0 -1 ------- null}
r -t 2.106418 -s 0 -d 1 -p cbr -e 210 -c 1 -i 27 -a 1 -x {0.0 3.0 27 ------- null}
+ -t 2.106418 -s 1 -d 3 -p cbr -e 210 -c 1 -i 27 -a 1 -x {0.0 3.0 27 ------- null}
- -t 2.106418 -s 1 -d 3 -p cbr -e 210 -c 1 -i 27 -a 1 -x {0.0 3.0 27 ------- null}
h -t 2.106418 -s 1 -d 3 -p cbr -e 210 -c 1 -i 27 -a 1 -x {0.0 3.0 -1 ------- null}
r -t 2.107836 -s 1 -d 3 -p cbr -e 210 -c 1 -i 26 -a 1 -x {0.0 3.0 26 ------- null}
+ -t 2.10875 -s 0 -d 1 -p cbr -e 210 -c 1 -i 29 -a 1 -x {0.0 3.0 29 ------- null}
- -t 2.10875 -s 0 -d 1 -p cbr -e 210 -c 1 -i 29 -a 1 -x {0.0 3.0 29 ------- null}
h -t 2.10875 -s 0 -d 1 -p cbr -e 210 -c 1 -i 29 -a 1 -x {0.0 3.0 -1 ------- null}
r -t 2.110168 -s 0 -d 1 -p cbr -e 210 -c 1 -i 28 -a 1 -x {0.0 3.0 28 ------- null}
+ -t 2.110168 -s 1 -d 3 -p cbr -e 210 -c 1 -i 28 -a 1 -x {0.0 3.0 28 ------- null}
- -t 2.110168 -s 1 -d 3 -p cbr -e 210 -c 1 -i 28 -a 1 -x {0.0 3.0 28 ------- null}
h -t 2.110168 -s 1 -d 3 -p cbr -e 210 -c 1 -i 28 -a 1 -x {0.0 3.0 -1 ------- null}
r -t 2.111586 -s 1 -d 3 -p cbr -e 210 -c 1 -i 27 -a 1 -x {0.0 3.0 27 ------- null}
+ -t 2.1125 -s 0 -d 1 -p cbr -e 210 -c 1 -i 30 -a 1 -x {0.0 3.0 30 ------- null}
- -t 2.1125 -s 0 -d 1 -p cbr -e 210 -c 1 -i 30 -a 1 -x {0.0 3.0 30 ------- null}
h -t 2.1125 -s 0 -d 1 -p cbr -e 210 -c 1 -i 30 -a 1 -x {0.0 3.0 -1 ------- null}
r -t 2.113918 -s 0 -d 1 -p cbr -e 210 -c 1 -i 29 -a 1 -x {0.0 3.0 29 ------- null}
+ -t 2.113918 -s 1 -d 3 -p cbr -e 210 -c 1 -i 29 -a 1 -x {0.0 3.0 29 ------- null}
- -t 2.113918 -s 1 -d 3 -p cbr -e 210 -c 1 -i 29 -a 1 -x {0.0 3.0 29 ------- null}
h -t 2.113918 -s 1 -d 3 -p cbr -e 210 -c 1 -i 29 -a 1 -x {0.0 3.0 -1 ------- null}
r -t 2.115336 -s 1 -d 3 -p cbr -e 210 -c 1 -i 28 -a 1 -x {0.0 3.0 28 ------- null}
+ -t 2.11625 -s 0 -d 1 -p cbr -e 210 -c 1 -i 31 -a 1 -x {0.0 3.0 31 ------- null}
- -t 2.11625 -s 0 -d 1 -p cbr -e 210 -c 1 -i 31 -a 1 -x {0.0 3.0 31 ------- null}
h -t 2.11625 -s 0 -d 1 -p cbr -e 210 -c 1 -i 31 -a 1 -x {0.0 3.0 -1 ------- null}
r -t 2.117668 -s 0 -d 1 -p cbr -e 210 -c 1 -i 30 -a 1 -x {0.0 3.0 30 ------- null}
+ -t 2.117668 -s 1 -d 3 -p cbr -e 210 -c 1 -i 30 -a 1 -x {0.0 3.0 30 ------- null}
- -t 2.117668 -s 1 -d 3 -p cbr -e 210 -c 1 -i 30 -a 1 -x {0.0 3.0 30 ------- null}
h -t 2.117668 -s 1 -d 3 -p cbr -e 210 -c 1 -i 30 -a 1 -x {0.0 3.0 -1 ------- null}
r -t 2.119086 -s 1 -d 3 -p cbr -e 210 -c 1 -i 29 -a 1 -x {0.0 3.0 29 ------- null}
+ -t 2.12 -s 0 -d 1 -p cbr -e 210 -c 1 -i 32 -a 1 -x {0.0 3.0 32 ------- null}
- -t 2.12 -s 0 -d 1 -p cbr -e 210 -c 1 -i 32 -a 1 -x {0.0 3.0 32 ------- null}
h -t 2.12 -s 0 -d 1 -p cbr -e 210 -c 1 -i 32 -a 1 -x {0.0 3.0 -1 ------- null}
r -t 2.121418 -s 0 -d 1 -p cbr -e 210 -c 1 -i 31 -a 1 -x {0.0 3.0 31 ------- null}
+ -t 2.121418 -s 1 -d 3 -p cbr -e 210 -c 1 -i 31 -a 1 -x {0.0 3.0 31 ------- null}
- -t 2.121418 -s 1 -d 3 -p cbr -e 210 -c 1 -i 31 -a 1 -x {0.0 3.0 31 ------- null}
h -t 2.121418 -s 1 -d 3 -p cbr -e 210 -c 1 -i 31 -a 1 -x {0.0 3.0 -1 ------- null}
r -t 2.122836 -s 1 -d 3 -p cbr -e 210 -c 1 -i 30 -a 1 -x {0.0 3.0 30 ------- null}
+ -t 2.12375 -s 0 -d 1 -p cbr -e 210 -c 1 -i 33 -a 1 -x {0.0 3.0 33 ------- null}
- -t 2.12375 -s 0 -d 1 -p cbr -e 210 -c 1 -i 33 -a 1 -x {0.0 3.0 33 ------- null}
h -t 2.12375 -s 0 -d 1 -p cbr -e 210 -c 1 -i 33 -a 1 -x {0.0 3.0 -1 ------- null}
r -t 2.125168 -s 0 -d 1 -p cbr -e 210 -c 1 -i 32 -a 1 -x {0.0 3.0 32 ------- null}
+ -t 2.125168 -s 1 -d 3 -p cbr -e 210 -c 1 -i 32 -a 1 -x {0.0 3.0 32 ------- null}
- -t 2.125168 -s 1 -d 3 -p cbr -e 210 -c 1 -i 32 -a 1 -x {0.0 3.0 32 ------- null}
h -t 2.125168 -s 1 -d 3 -p cbr -e 210 -c 1 -i 32 -a 1 -x {0.0 3.0 -1 ------- null}
r -t 2.126586 -s 1 -d 3 -p cbr -e 210 -c 1 -i 31 -a 1 -x {0.0 3.0 31 ------- null}
+ -t 2.1275 -s 0 -d 1 -p cbr -e 210 -c 1 -i 34 -a 1 -x {0.0 3.0 34 ------- null}
- -t 2.1275 -s 0 -d 1 -p cbr -e 210 -c 1 -i 34 -a 1 -x {0.0 3.0 34 ------- null}
h -t 2.1275 -s 0 -d 1 -p cbr -e 210 -c 1 -i 34 -a 1 -x {0.0 3.0 -1 ------- null}
r -t 2.128918 -s 0 -d 1 -p cbr -e 210 -c 1 -i 33 -a 1 -x {0.0 3.0 33 ------- null}
+ -t 2.128918 -s 1 -d 3 -p cbr -e 210 -c 1 -i 33 -a 1 -x {0.0 3.0 33 ------- null}
- -t 2.128918 -s 1 -d 3 -p cbr -e 210 -c 1 -i 33 -a 1 -x {0.0 3.0 33 ------- null}
h -t 2.128918 -s 1 -d 3 -p cbr -e 210 -c 1 -i 33 -a 1 -x {0.0 3.0 -1 ------- null}
r -t 2.130336 -s 1 -d 3 -p cbr -e 210 -c 1 -i 32 -a 1 -x {0.0 3.0 32 ------- null}
+ -t 2.13125 -s 0 -d 1 -p cbr -e 210 -c 1 -i 35 -a 1 -x {0.0 3.0 35 ------- null}
- -t 2.13125 -s 0 -d 1 -p cbr -e 210 -c 1 -i 35 -a 1 -x {0.0 3.0 35 ------- null}
h -t 2.13125 -s 0 -d 1 -p cbr -e 210 -c 1 -i 35 -a 1 -x {0.0 3.0 -1 ------- null}
r -t 2.132668 -s 0 -d 1 -p cbr -e 210 -c 1 -i 34 -a 1 -x {0.0 3.0 34 ------- null}
+ -t 2.132668 -s 1 -d 3 -p cbr -e 210 -c 1 -i 34 -a 1 -x {0.0 3.0 34 ------- null}
- -t 2.132668 -s 1 -d 3 -p cbr -e 210 -c 1 -i 34 -a 1 -x {0.0 3.0 34 ------- null}
h -t 2.132668 -s 1 -d 3 -p cbr -e 210 -c 1 -i 34 -a 1 -x {0.0 3.0 -1 ------- null}
r -t 2.134086 -s 1 -d 3 -p cbr -e 210 -c 1 -i 33 -a 1 -x {0.0 3.0 33 ------- null}
+ -t 2.13500000000001 -s 0 -d 1 -p cbr -e 210 -c 1 -i 36 -a 1 -x {0.0 3.0 36 ------- null}
- -t 2.13500000000001 -s 0 -d 1 -p cbr -e 210 -c 1 -i 36 -a 1 -x {0.0 3.0 36 ------- null}
h -t 2.13500000000001 -s 0 -d 1 -p cbr -e 210 -c 1 -i 36 -a 1 -x {0.0 3.0 -1 ------- null}
r -t 2.136418 -s 0 -d 1 -p cbr -e 210 -c 1 -i 35 -a 1 -x {0.0 3.0 35 ------- null}
+ -t 2.136418 -s 1 -d 3 -p cbr -e 210 -c 1 -i 35 -a 1 -x {0.0 3.0 35 ------- null}
- -t 2.136418 -s 1 -d 3 -p cbr -e 210 -c 1 -i 35 -a 1 -x {0.0 3.0 35 ------- null}
h -t 2.136418 -s 1 -d 3 -p cbr -e 210 -c 1 -i 35 -a 1 -x {0.0 3.0 -1 ------- null}
r -t 2.137836 -s 1 -d 3 -p cbr -e 210 -c 1 -i 34 -a 1 -x {0.0 3.0 34 ------- null}
+ -t 2.13875000000001 -s 0 -d 1 -p cbr -e 210 -c 1 -i 37 -a 1 -x {0.0 3.0 37 ------- null}
- -t 2.13875000000001 -s 0 -d 1 -p cbr -e 210 -c 1 -i 37 -a 1 -x {0.0 3.0 37 ------- null}
h -t 2.13875000000001 -s 0 -d 1 -p cbr -e 210 -c 1 -i 37 -a 1 -x {0.0 3.0 -1 ------- null}
r -t 2.140168 -s 0 -d 1 -p cbr -e 210 -c 1 -i 36 -a 1 -x {0.0 3.0 36 ------- null}
+ -t 2.140168 -s 1 -d 3 -p cbr -e 210 -c 1 -i 36 -a 1 -x {0.0 3.0 36 ------- null}
- -t 2.140168 -s 1 -d 3 -p cbr -e 210 -c 1 -i 36 -a 1 -x {0.0 3.0 36 ------- null}
h -t 2.140168 -s 1 -d 3 -p cbr -e 210 -c 1 -i 36 -a 1 -x {0.0 3.0 -1 ------- null}
r -t 2.141586 -s 1 -d 3 -p cbr -e 210 -c 1 -i 35 -a 1 -x {0.0 3.0 35 ------- null}
+ -t 2.14250000000001 -s 0 -d 1 -p cbr -e 210 -c 1 -i 38 -a 1 -x {0.0 3.0 38 ------- null}
- -t 2.14250000000001 -s 0 -d 1 -p cbr -e 210 -c 1 -i 38 -a 1 -x {0.0 3.0 38 ------- null}
h -t 2.14250000000001 -s 0 -d 1 -p cbr -e 210 -c 1 -i 38 -a 1 -x {0.0 3.0 -1 ------- null}
r -t 2.14391800000001 -s 0 -d 1 -p cbr -e 210 -c 1 -i 37 -a 1 -x {0.0 3.0 37 ------- null}
+ -t 2.14391800000001 -s 1 -d 3 -p cbr -e 210 -c 1 -i 37 -a 1 -x {0.0 3.0 37 ------- null}
- -t 2.14391800000001 -s 1 -d 3 -p cbr -e 210 -c 1 -i 37 -a 1 -x {0.0 3.0 37 ------- null}
h -t 2.14391800000001 -s 1 -d 3 -p cbr -e 210 -c 1 -i 37 -a 1 -x {0.0 3.0 -1 ------- null}
r -t 2.145336 -s 1 -d 3 -p cbr -e 210 -c 1 -i 36 -a 1 -x {0.0 3.0 36 ------- null}
+ -t 2.14625000000001 -s 0 -d 1 -p cbr -e 210 -c 1 -i 39 -a 1 -x {0.0 3.0 39 ------- null}
- -t 2.14625000000001 -s 0 -d 1 -p cbr -e 210 -c 1 -i 39 -a 1 -x {0.0 3.0 39 ------- null}
h -t 2.14625000000001 -s 0 -d 1 -p cbr -e 210 -c 1 -i 39 -a 1 -x {0.0 3.0 -1 ------- null}
r -t 2.14766800000001 -s 0 -d 1 -p cbr -e 210 -c 1 -i 38 -a 1 -x {0.0 3.0 38 ------- null}
+ -t 2.14766800000001 -s 1 -d 3 -p cbr -e 210 -c 1 -i 38 -a 1 -x {0.0 3.0 38 ------- null}
- -t 2.14766800000001 -s 1 -d 3 -p cbr -e 210 -c 1 -i 38 -a 1 -x {0.0 3.0 38 ------- null}
h -t 2.14766800000001 -s 1 -d 3 -p cbr -e 210 -c 1 -i 38 -a 1 -x {0.0 3.0 -1 ------- null}
r -t 2.149086 -s 1 -d 3 -p cbr -e 210 -c 1 -i 37 -a 1 -x {0.0 3.0 37 ------- null}
+ -t 2.15000000000001 -s 0 -d 1 -p cbr -e 210 -c 1 -i 40 -a 1 -x {0.0 3.0 40 ------- null}
- -t 2.15000000000001 -s 0 -d 1 -p cbr -e 210 -c 1 -i 40 -a 1 -x {0.0 3.0 40 ------- null}
h -t 2.15000000000001 -s 0 -d 1 -p cbr -e 210 -c 1 -i 40 -a 1 -x {0.0 3.0 -1 ------- null}
r -t 2.15141800000001 -s 0 -d 1 -p cbr -e 210 -c 1 -i 39 -a 1 -x {0.0 3.0 39 ------- null}
+ -t 2.15141800000001 -s 1 -d 3 -p cbr -e 210 -c 1 -i 39 -a 1 -x {0.0 3.0 39 ------- null}
- -t 2.15141800000001 -s 1 -d 3 -p cbr -e 210 -c 1 -i 39 -a 1 -x {0.0 3.0 39 ------- null}
h -t 2.15141800000001 -s 1 -d 3 -p cbr -e 210 -c 1 -i 39 -a 1 -x {0.0 3.0 -1 ------- null}
r -t 2.15283600000001 -s 1 -d 3 -p cbr -e 210 -c 1 -i 38 -a 1 -x {0.0 3.0 38 ------- null}
+ -t 2.15375000000001 -s 0 -d 1 -p cbr -e 210 -c 1 -i 41 -a 1 -x {0.0 3.0 41 ------- null}
- -t 2.15375000000001 -s 0 -d 1 -p cbr -e 210 -c 1 -i 41 -a 1 -x {0.0 3.0 41 ------- null}
h -t 2.15375000000001 -s 0 -d 1 -p cbr -e 210 -c 1 -i 41 -a 1 -x {0.0 3.0 -1 ------- null}
r -t 2.15516800000001 -s 0 -d 1 -p cbr -e 210 -c 1 -i 40 -a 1 -x {0.0 3.0 40 ------- null}
+ -t 2.15516800000001 -s 1 -d 3 -p cbr -e 210 -c 1 -i 40 -a 1 -x {0.0 3.0 40 ------- null}
- -t 2.15516800000001 -s 1 -d 3 -p cbr -e 210 -c 1 -i 40 -a 1 -x {0.0 3.0 40 ------- null}
h -t 2.15516800000001 -s 1 -d 3 -p cbr -e 210 -c 1 -i 40 -a 1 -x {0.0 3.0 -1 ------- null}
r -t 2.15658600000001 -s 1 -d 3 -p cbr -e 210 -c 1 -i 39 -a 1 -x {0.0 3.0 39 ------- null}
+ -t 2.15750000000001 -s 0 -d 1 -p cbr -e 210 -c 1 -i 42 -a 1 -x {0.0 3.0 42 ------- null}
- -t 2.15750000000001 -s 0 -d 1 -p cbr -e 210 -c 1 -i 42 -a 1 -x {0.0 3.0 42 ------- null}
h -t 2.15750000000001 -s 0 -d 1 -p cbr -e 210 -c 1 -i 42 -a 1 -x {0.0 3.0 -1 ------- null}
r -t 2.15891800000001 -s 0 -d 1 -p cbr -e 210 -c 1 -i 41 -a 1 -x {0.0 3.0 41 ------- null}
+ -t 2.15891800000001 -s 1 -d 3 -p cbr -e 210 -c 1 -i 41 -a 1 -x {0.0 3.0 41 ------- null}
- -t 2.15891800000001 -s 1 -d 3 -p cbr -e 210 -c 1 -i 41 -a 1 -x {0.0 3.0 41 ------- null}
h -t 2.15891800000001 -s 1 -d 3 -p cbr -e 210 -c 1 -i 41 -a 1 -x {0.0 3.0 -1 ------- null}
r -t 2.16033600000001 -s 1 -d 3 -p cbr -e 210 -c 1 -i 40 -a 1 -x {0.0 3.0 40 ------- null}
+ -t 2.16125000000001 -s 0 -d 1 -p cbr -e 210 -c 1 -i 43 -a 1 -x {0.0 3.0 43 ------- null}
- -t 2.16125000000001 -s 0 -d 1 -p cbr -e 210 -c 1 -i 43 -a 1 -x {0.0 3.0 43 ------- null}
h -t 2.16125000000001 -s 0 -d 1 -p cbr -e 210 -c 1 -i 43 -a 1 -x {0.0 3.0 -1 ------- null}
r -t 2.16266800000001 -s 0 -d 1 -p cbr -e 210 -c 1 -i 42 -a 1 -x {0.0 3.0 42 ------- null}
+ -t 2.16266800000001 -s 1 -d 3 -p cbr -e 210 -c 1 -i 42 -a 1 -x {0.0 3.0 42 ------- null}
- -t 2.16266800000001 -s 1 -d 3 -p cbr -e 210 -c 1 -i 42 -a 1 -x {0.0 3.0 42 ------- null}
h -t 2.16266800000001 -s 1 -d 3 -p cbr -e 210 -c 1 -i 42 -a 1 -x {0.0 3.0 -1 ------- null}
r -t 2.16408600000001 -s 1 -d 3 -p cbr -e 210 -c 1 -i 41 -a 1 -x {0.0 3.0 41 ------- null}
+ -t 2.16500000000001 -s 0 -d 1 -p cbr -e 210 -c 1 -i 44 -a 1 -x {0.0 3.0 44 ------- null}
- -t 2.16500000000001 -s 0 -d 1 -p cbr -e 210 -c 1 -i 44 -a 1 -x {0.0 3.0 44 ------- null}
h -t 2.16500000000001 -s 0 -d 1 -p cbr -e 210 -c 1 -i 44 -a 1 -x {0.0 3.0 -1 ------- null}