+ 2 0 1 cbr 210 ------- 1 0.0 3.0 0 0
- 2 0 1 cbr 210 ------- 1 0.0 3.0 0 0
+ 2.00375 0 1 cbr 210 ------- 1 0.0 3.0 1 1
- 2.00375 0 1 cbr 210 ------- 1 0.0 3.0 1 1
r 2.005168 0 1 cbr 210 ------- 1 0.0 3.0 0 0
+ 2.005168 1 3 cbr 210 ------- 1 0.0 3.0 0 0
- 2.005168 1 3 cbr 210 ------- 1 0.0 3.0 0 0
+ 2.0075 0 1 cbr 210 ------- 1 0.0 3.0 2 2
- 2.0075 0 1 cbr 210 ------- 1 0.0 3.0 2 2
r 2.008918 0 1 cbr 210 ------- 1 0.0 3.0 1 1
+ 2.008918 1 3 cbr 210 ------- 1 0.0 3.0 1 1
- 2.008918 1 3 cbr 210 ------- 1 0.0 3.0 1 1
r 2.010336 1 3 cbr 210 ------- 1 0.0 3.0 0 0
+ 2.01125 0 1 cbr 210 ------- 1 0.0 3.0 3 3
- 2.01125 0 1 cbr 210 ------- 1 0.0 3.0 3 3
r 2.012668 0 1 cbr 210 ------- 1 0.0 3.0 2 2
+ 2.012668 1 3 cbr 210 ------- 1 0.0 3.0 2 2
- 2.012668 1 3 cbr 210 ------- 1 0.0 3.0 2 2
r 2.014086 1 3 cbr 210 ------- 1 0.0 3.0 1 1
+ 2.015 0 1 cbr 210 ------- 1 0.0 3.0 4 4
- 2.015 0 1 cbr 210 ------- 1 0.0 3.0 4 4
r 2.016418 0 1 cbr 210 ------- 1 0.0 3.0 3 3
+ 2.016418 1 3 cbr 210 ------- 1 0.0 3.0 3 3
- 2.016418 1 3 cbr 210 ------- 1 0.0 3.0 3 3
r 2.017836 1 3 cbr 210 ------- 1 0.0 3.0 2 2
+ 2.01875 0 1 cbr 210 ------- 1 0.0 3.0 5 5
- 2.01875 0 1 cbr 210 ------- 1 0.0 3.0 5 5
r 2.020168 0 1 cbr 210 ------- 1 0.0 3.0 4 4
+ 2.020168 1 3 cbr 210 ------- 1 0.0 3.0 4 4
- 2.020168 1 3 cbr 210 ------- 1 0.0 3.0 4 4
r 2.021586 1 3 cbr 210 ------- 1 0.0 3.0 3 3
+ 2.0225 0 1 cbr 210 ------- 1 0.0 3.0 6 6
- 2.0225 0 1 cbr 210 ------- 1 0.0 3.0 6 6
r 2.023918 0 1 cbr 210 ------- 1 0.0 3.0 5 5
+ 2.023918 1 3 cbr 210 ------- 1 0.0 3.0 5 5
- 2.023918 1 3 cbr 210 ------- 1 0.0 3.0 5 5
r 2.025336 1 3 cbr 210 ------- 1 0.0 3.0 4 4
+ 2.02625 0 1 cbr 210 ------- 1 0.0 3.0 7 7
- 2.02625 0 1 cbr 210 ------- 1 0.0 3.0 7 7
r 2.027668 0 1 cbr 210 ------- 1 0.0 3.0 6 6
+ 2.027668 1 3 cbr 210 ------- 1 0.0 3.0 6 6
- 2.027668 1 3 cbr 210 ------- 1 0.0 3.0 6 6
r 2.029086 1 3 cbr 210 ------- 1 0.0 3.0 5 5
+ 2.03 0 1 cbr 210 ------- 1 0.0 3.0 8 8
- 2.03 0 1 cbr 210 ------- 1 0.0 3.0 8 8
r 2.031418 0 1 cbr 210 ------- 1 0.0 3.0 7 7
+ 2.031418 1 3 cbr 210 ------- 1 0.0 3.0 7 7
- 2.031418 1 3 cbr 210 ------- 1 0.0 3.0 7 7
r 2.032836 1 3 cbr 210 ------- 1 0.0 3.0 6 6
+ 2.03375 0 1 cbr 210 ------- 1 0.0 3.0 9 9
- 2.03375 0 1 cbr 210 ------- 1 0.0 3.0 9 9
r 2.035168 0 1 cbr 210 ------- 1 0.0 3.0 8 8
+ 2.035168 1 3 cbr 210 ------- 1 0.0 3.0 8 8
- 2.035168 1 3 cbr 210 ------- 1 0.0 3.0 8 8
r 2.036586 1 3 cbr 210 ------- 1 0.0 3.0 7 7
+ 2.0375 0 1 cbr 210 ------- 1 0.0 3.0 10 10
- 2.0375 0 1 cbr 210 ------- 1 0.0 3.0 10 10
r 2.038918 0 1 cbr 210 ------- 1 0.0 3.0 9 9
+ 2.038918 1 3 cbr 210 ------- 1 0.0 3.0 9 9
- 2.038918 1 3 cbr 210 ------- 1 0.0 3.0 9 9
r 2.040336 1 3 cbr 210 ------- 1 0.0 3.0 8 8
+ 2.04125 0 1 cbr 210 ------- 1 0.0 3.0 11 11
- 2.04125 0 1 cbr 210 ------- 1 0.0 3.0 11 11
r 2.042668 0 1 cbr 210 ------- 1 0.0 3.0 10 10
+ 2.042668 1 3 cbr 210 ------- 1 0.0 3.0 10 10
- 2.042668 1 3 cbr 210 ------- 1 0.0 3.0 10 10
r 2.044086 1 3 cbr 210 ------- 1 0.0 3.0 9 9
+ 2.045 0 1 cbr 210 ------- 1 0.0 3.0 12 12
- 2.045 0 1 cbr 210 ------- 1 0.0 3.0 12 12
r 2.046418 0 1 cbr 210 ------- 1 0.0 3.0 11 11
+ 2.046418 1 3 cbr 210 ------- 1 0.0 3.0 11 11
- 2.046418 1 3 cbr 210 ------- 1 0.0 3.0 11 11
r 2.047836 1 3 cbr 210 ------- 1 0.0 3.0 10 10
+ 2.04875 0 1 cbr 210 ------- 1 0.0 3.0 13 13
- 2.04875 0 1 cbr 210 ------- 1 0.0 3.0 13 13
r 2.050168 0 1 cbr 210 ------- 1 0.0 3.0 12 12
+ 2.050168 1 3 cbr 210 ------- 1 0.0 3.0 12 12
- 2.050168 1 3 cbr 210 ------- 1 0.0 3.0 12 12
r 2.051586 1 3 cbr 210 ------- 1 0.0 3.0 11 11
+ 2.0525 0 1 cbr 210 ------- 1 0.0 3.0 14 14
- 2.0525 0 1 cbr 210 ------- 1 0.0 3.0 14 14
r 2.053918 0 1 cbr 210 ------- 1 0.0 3.0 13 13
+ 2.053918 1 3 cbr 210 ------- 1 0.0 3.0 13 13
- 2.053918 1 3 cbr 210 ------- 1 0.0 3.0 13 13
r 2.055336 1 3 cbr 210 ------- 1 0.0 3.0 12 12
+ 2.05625 0 1 cbr 210 ------- 1 0.0 3.0 15 15
- 2.05625 0 1 cbr 210 ------- 1 0.0 3.0 15 15
r 2.057668 0 1 cbr 210 ------- 1 0.0 3.0 14 14
+ 2.057668 1 3 cbr 210 ------- 1 0.0 3.0 14 14
- 2.057668 1 3 cbr 210 ------- 1 0.0 3.0 14 14
r 2.059086 1 3 cbr 210 ------- 1 0.0 3.0 13 13
+ 2.06 0 1 cbr 210 ------- 1 0.0 3.0 16 16
- 2.06 0 1 cbr 210 ------- 1 0.0 3.0 16 16
r 2.061418 0 1 cbr 210 ------- 1 0.0 3.0 15 15
+ 2.061418 1 3 cbr 210 ------- 1 0.0 3.0 15 15
- 2.061418 1 3 cbr 210 ------- 1 0.0 3.0 15 15
r 2.062836 1 3 cbr 210 ------- 1 0.0 3.0 14 14
+ 2.06375 0 1 cbr 210 ------- 1 0.0 3.0 17 17
- 2.06375 0 1 cbr 210 ------- 1 0.0 3.0 17 17
r 2.065168 0 1 cbr 210 ------- 1 0.0 3.0 16 16
+ 2.065168 1 3 cbr 210 ------- 1 0.0 3.0 16 16
- 2.065168 1 3 cbr 210 ------- 1 0.0 3.0 16 16
r 2.066586 1 3 cbr 210 ------- 1 0.0 3.0 15 15
+ 2.0675 0 1 cbr 210 ------- 1 0.0 3.0 18 18
- 2.0675 0 1 cbr 210 ------- 1 0.0 3.0 18 18
r 2.068918 0 1 cbr 210 ------- 1 0.0 3.0 17 17
+ 2.068918 1 3 cbr 210 ------- 1 0.0 3.0 17 17
- 2.068918 1 3 cbr 210 ------- 1 0.0 3.0 17 17
r 2.070336 1 3 cbr 210 ------- 1 0.0 3.0 16 16
+ 2.07125 0 1 cbr 210 ------- 1 0.0 3.0 19 19
- 2.07125 0 1 cbr 210 ------- 1 0.0 3.0 19 19
r 2.072668 0 1 cbr 210 ------- 1 0.0 3.0 18 18
+ 2.072668 1 3 cbr 210 ------- 1 0.0 3.0 18 18
- 2.072668 1 3 cbr 210 ------- 1 0.0 3.0 18 18
r 2.074086 1 3 cbr 210 ------- 1 0.0 3.0 17 17
+ 2.075 0 1 cbr 210 ------- 1 0.0 3.0 20 20
- 2.075 0 1 cbr 210 ------- 1 0.0 3.0 20 20
r 2.076418 0 1 cbr 210 ------- 1 0.0 3.0 19 19
+ 2.076418 1 3 cbr 210 ------- 1 0.0 3.0 19 19
- 2.076418 1 3 cbr 210 ------- 1 0.0 3.0 19 19
r 2.077836 1 3 cbr 210 ------- 1 0.0 3.0 18 18
+ 2.07875 0 1 cbr 210 ------- 1 0.0 3.0 21 21
- 2.07875 0 1 cbr 210 ------- 1 0.0 3.0 21 21
r 2.080168 0 1 cbr 210 ------- 1 0.0 3.0 20 20
+ 2.080168 1 3 cbr 210 ------- 1 0.0 3.0 20 20
- 2.080168 1 3 cbr 210 ------- 1 0.0 3.0 20 20
r 2.081586 1 3 cbr 210 ------- 1 0.0 3.0 19 19
+ 2.0825 0 1 cbr 210 ------- 1 0.0 3.0 22 22
- 2.0825 0 1 cbr 210 ------- 1 0.0 3.0 22 22
r 2.083918 0 1 cbr 210 ------- 1 0.0 3.0 21 21
+ 2.083918 1 3 cbr 210 ------- 1 0.0 3.0 21 21
- 2.083918 1 3 cbr 210 ------- 1 0.0 3.0 21 21
r 2.085336 1 3 cbr 210 ------- 1 0.0 3.0 20 20
+ 2.08625 0 1 cbr 210 ------- 1 0.0 3.0 23 23
- 2.08625 0 1 cbr 210 ------- 1 0.0 3.0 23 23
r 2.087668 0 1 cbr 210 ------- 1 0.0 3.0 22 22
+ 2.087668 1 3 cbr 210 ------- 1 0.0 3.0 22 22
- 2.087668 1 3 cbr 210 ------- 1 0.0 3.0 22 22
r 2.089086 1 3 cbr 210 ------- 1 0.0 3.0 21 21
+ 2.09 0 1 cbr 210 ------- 1 0.0 3.0 24 24
- 2.09 0 1 cbr 210 ------- 1 0.0 3.0 24 24
r 2.091418 0 1 cbr 210 ------- 1 0.0 3.0 23 23
+ 2.091418 1 3 cbr 210 ------- 1 0.0 3.0 23 23
- 2.091418 1 3 cbr 210 ------- 1 0.0 3.0 23 23
r 2.092836 1 3 cbr 210 ------- 1 0.0 3.0 22 22
+ 2.09375 0 1 cbr 210 ------- 1 0.0 3.0 25 25
- 2.09375 0 1 cbr 210 ------- 1 0.0 3.0 25 25
r 2.095168 0 1 cbr 210 ------- 1 0.0 3.0 24 24
+ 2.095168 1 3 cbr 210 ------- 1 0.0 3.0 24 24
- 2.095168 1 3 cbr 210 ------- 1 0.0 3.0 24 24
r 2.096586 1 3 cbr 210 ------- 1 0.0 3.0 23 23
+ 2.0975 0 1 cbr 210 ------- 1 0.0 3.0 26 26
- 2.0975 0 1 cbr 210 ------- 1 0.0 3.0 26 26
r 2.098918 0 1 cbr 210 ------- 1 0.0 3.0 25 25
+ 2.098918 1 3 cbr 210 ------- 1 0.0 3.0 25 25
- 2.098918 1 3 cbr 210 ------- 1 0.0 3.0 25 25
r 2.100336 1 3 cbr 210 ------- 1 0.0 3.0 24 24
+ 2.10125 0 1 cbr 210 ------- 1 0.0 3.0 27 27
- 2.10125 0 1 cbr 210 ------- 1 0.0 3.0 27 27
r 2.102668 0 1 cbr 210 ------- 1 0.0 3.0 26 26
+ 2.102668 1 3 cbr 210 ------- 1 0.0 3.0 26 26
- 2.102668 1 3 cbr 210 ------- 1 0.0 3.0 26 26
r 2.104086 1 3 cbr 210 ------- 1 0.0 3.0 25 25
+ 2.105 0 1 cbr 210 ------- 1 0.0 3.0 28 28
- 2.105 0 1 cbr 210 ------- 1 0.0 3.0 28 28
r 2.106418 0 1 cbr 210 ------- 1 0.0 3.0 27 27
+ 2.106418 1 3 cbr 210 ------- 1 0.0 3.0 27 27
- 2.106418 1 3 cbr 210 ------- 1 0.0 3.0 27 27
r 2.107836 1 3 cbr 210 ------- 1 0.0 3.0 26 26
+ 2.10875 0 1 cbr 210 ------- 1 0.0 3.0 29 29
- 2.10875 0 1 cbr 210 ------- 1 0.0 3.0 29 29
r 2.110168 0 1 cbr 210 ------- 1 0.0 3.0 28 28
+ 2.110168 1 3 cbr 210 ------- 1 0.0 3.0 28 28
- 2.110168 1 3 cbr 210 ------- 1 0.0 3.0 28 28
r 2.111586 1 3 cbr 210 ------- 1 0.0 3.0 27 27
+ 2.1125 0 1 cbr 210 ------- 1 0.0 3.0 30 30
- 2.1125 0 1 cbr 210 ------- 1 0.0 3.0 30 30
r 2.113918 0 1 cbr 210 ------- 1 0.0 3.0 29 29
+ 2.113918 1 3 cbr 210 ------- 1 0.0 3.0 29 29
- 2.113918 1 3 cbr 210 ------- 1 0.0 3.0 29 29
r 2.115336 1 3 cbr 210 ------- 1 0.0 3.0 28 28
+ 2.11625 0 1 cbr 210 ------- 1 0.0 3.0 31 31
- 2.11625 0 1 cbr 210 ------- 1 0.0 3.0 31 31
r 2.117668 0 1 cbr 210 ------- 1 0.0 3.0 30 30
+ 2.117668 1 3 cbr 210 ------- 1 0.0 3.0 30 30
- 2.117668 1 3 cbr 210 ------- 1 0.0 3.0 30 30
r 2.119086 1 3 cbr 210 ------- 1 0.0 3.0 29 29
+ 2.12 0 1 cbr 210 ------- 1 0.0 3.0 32 32
- 2.12 0 1 cbr 210 ------- 1 0.0 3.0 32 32
r 2.121418 0 1 cbr 210 ------- 1 0.0 3.0 31 31
+ 2.121418 1 3 cbr 210 ------- 1 0.0 3.0 31 31
- 2.121418 1 3 cbr 210 ------- 1 0.0 3.0 31 31
r 2.122836 1 3 cbr 210 ------- 1 0.0 3.0 30 30
+ 2.12375 0 1 cbr 210 ------- 1 0.0 3.0 33 33
- 2.12375 0 1 cbr 210 ------- 1 0.0 3.0 33 33
r 2.125168 0 1 cbr 210 ------- 1 0.0 3.0 32 32
+ 2.125168 1 3 cbr 210 ------- 1 0.0 3.0 32 32
- 2.125168 1 3 cbr 210 ------- 1 0.0 3.0 32 32
r 2.126586 1 3 cbr 210 ------- 1 0.0 3.0 31 31
+ 2.1275 0 1 cbr 210 ------- 1 0.0 3.0 34 34
- 2.1275 0 1 cbr 210 ------- 1 0.0 3.0 34 34
r 2.128918 0 1 cbr 210 ------- 1 0.0 3.0 33 33
+ 2.128918 1 3 cbr 210 ------- 1 0.0 3.0 33 33
- 2.128918 1 3 cbr 210 ------- 1 0.0 3.0 33 33
r 2.130336 1 3 cbr 210 ------- 1 0.0 3.0 32 32
+ 2.13125 0 1 cbr 210 ------- 1 0.0 3.0 35 35
- 2.13125 0 1 cbr 210 ------- 1 0.0 3.0 35 35
r 2.132668 0 1 cbr 210 ------- 1 0.0 3.0 34 34
+ 2.132668 1 3 cbr 210 ------- 1 0.0 3.0 34 34
- 2.132668 1 3 cbr 210 ------- 1 0.0 3.0 34 34
r 2.134086 1 3 cbr 210 ------- 1 0.0 3.0 33 33
+ 2.135 0 1 cbr 210 ------- 1 0.0 3.0 36 36
- 2.135 0 1 cbr 210 ------- 1 0.0 3.0 36 36
r 2.136418 0 1 cbr 210 ------- 1 0.0 3.0 35 35
+ 2.136418 1 3 cbr 210 ------- 1 0.0 3.0 35 35
- 2.136418 1 3 cbr 210 ------- 1 0.0 3.0 35 35
r 2.137836 1 3 cbr 210 ------- 1 0.0 3.0 34 34
+ 2.13875 0 1 cbr 210 ------- 1 0.0 3.0 37 37
- 2.13875 0 1 cbr 210 ------- 1 0.0 3.0 37 37
r 2.140168 0 1 cbr 210 ------- 1 0.0 3.0 36 36
+ 2.140168 1 3 cbr 210 ------- 1 0.0 3.0 36 36
- 2.140168 1 3 cbr 210 ------- 1 0.0 3.0 36 36
r 2.141586 1 3 cbr 210 ------- 1 0.0 3.0 35 35
+ 2.1425 0 1 cbr 210 ------- 1 0.0 3.0 38 38
- 2.1425 0 1 cbr 210 ------- 1 0.0 3.0 38 38
r 2.143918 0 1 cbr 210 ------- 1 0.0 3.0 37 37
+ 2.143918 1 3 cbr 210 ------- 1 0.0 3.0 37 37
- 2.143918 1 3 cbr 210 ------- 1 0.0 3.0 37 37
r 2.145336 1 3 cbr 210 ------- 1 0.0 3.0 36 36
+ 2.14625 0 1 cbr 210 ------- 1 0.0 3.0 39 39
- 2.14625 0 1 cbr 210 ------- 1 0.0 3.0 39 39
r 2.147668 0 1 cbr 210 ------- 1 0.0 3.0 38 38
+ 2.147668 1 3 cbr 210 ------- 1 0.0 3.0 38 38
- 2.147668 1 3 cbr 210 ------- 1 0.0 3.0 38 38
r 2.149086 1 3 cbr 210 ------- 1 0.0 3.0 37 37
+ 2.15 0 1 cbr 210 ------- 1 0.0 3.0 40 40
- 2.15 0 1 cbr 210 ------- 1 0.0 3.0 40 40
r 2.151418 0 1 cbr 210 ------- 1 0.0 3.0 39 39
+ 2.151418 1 3 cbr 210 ------- 1 0.0 3.0 39 39
- 2.151418 1 3 cbr 210 ------- 1 0.0 3.0 39 39
r 2.152836 1 3 cbr 210 ------- 1 0.0 3.0 38 38
+ 2.15375 0 1 cbr 210 ------- 1 0.0 3.0 41 41
- 2.15375 0 1 cbr 210 ------- 1 0.0 3.0 41 41
r 2.155168 0 1 cbr 210 ------- 1 0.0 3.0 40 40
+ 2.155168 1 3 cbr 210 ------- 1 0.0 3.0 40 40
- 2.155168 1 3 cbr 210 ------- 1 0.0 3.0 40 40
r 2.156586 1 3 cbr 210 ------- 1 0.0 3.0 39 39
+ 2.1575 0 1 cbr 210 ------- 1 0.0 3.0 42 42
- 2.1575 0 1 cbr 210 ------- 1 0.0 3.0 42 42
r 2.158918 0 1 cbr 210 ------- 1 0.0 3.0 41 41
+ 2.158918 1 3 cbr 210 ------- 1 0.0 3.0 41 41
- 2.158918 1 3 cbr 210 ------- 1 0.0 3.0 41 41
r 2.160336 1 3 cbr 210 ------- 1 0.0 3.0 40 40
+ 2.16125 0 1 cbr 210 ------- 1 0.0 3.0 43 43
- 2.16125 0 1 cbr 210 ------- 1 0.0 3.0 43 43
r 2.162668 0 1 cbr 210 ------- 1 0.0 3.0 42 42
+ 2.162668 1 3 cbr 210 ------- 1 0.0 3.0 42 42
- 2.162668 1 3 cbr 210 ------- 1 0.0 3.0 42 42
r 2.164086 1 3 cbr 210 ------- 1 0.0 3.0 41 41
+ 2.165 0 1 cbr 210 ------- 1 0.0 3.0 44 44
- 2.165 0 1 cbr 210 ------- 1 0.0 3.0 44 44
r 2.166418 0 1 cbr 210 ------- 1 0.0 3.0 43 43
+ 2.166418 1 3 cbr 210 ------- 1 0.0 3.0 43 43
- 2.166418 1 3 cbr 210 ------- 1 0.0 3.0 43 43
r 2.167836 1 3 cbr 210 ------- 1 0.0 3.0 42 42
+ 2.16875 0 1 cbr 210 ------- 1 0.0 3.0 45 45
- 2.16875 0 1 cbr 210 ------- 1 0.0 3.0 45 45
r 2.170168 0 1 cbr 210 ------- 1 0.0 3.0 44 44
+ 2.170168 1 3 cbr 210 ------- 1 0.0 3.0 44 44
- 2.170168 1 3 cbr 210 ------- 1 0.0 3.0 44 44
r 2.171586 1 3 cbr 210 ------- 1 0.0 3.0 43 43
+ 2.1725 0 1 cbr 210 ------- 1 0.0 3.0 46 46
- 2.1725 0 1 cbr 210 ------- 1 0.0 3.0 46 46
r 2.173918 0 1 cbr 210 ------- 1 0.0 3.0 45 45
+ 2.173918 1 3 cbr 210 ------- 1 0.0 3.0 45 45
- 2.173918 1 3 cbr 210 ------- 1 0.0 3.0 45 45
r 2.175336 1 3 cbr 210 ------- 1 0.0 3.0 44 44
+ 2.17625 0 1 cbr 210 ------- 1 0.0 3.0 47 47
- 2.17625 0 1 cbr 210 ------- 1 0.0 3.0 47 47
r 2.177668 0 1 cbr 210 ------- 1 0.0 3.0 46 46
+ 2.177668 1 3 cbr 210 ------- 1 0.0 3.0 46 46
- 2.177668 1 3 cbr 210 ------- 1 0.0 3.0 46 46
r 2.179086 1 3 cbr 210 ------- 1 0.0 3.0 45 45
+ 2.18 0 1 cbr 210 ------- 1 0.0 3.0 48 48
- 2.18 0 1 cbr 210 ------- 1 0.0 3.0 48 48
r 2.181418 0 1 cbr 210 ------- 1 0.0 3.0 47 47
+ 2.181418 1 3 cbr 210 ------- 1 0.0 3.0 47 47
- 2.181418 1 3 cbr 210 ------- 1 0.0 3.0 47 47
r 2.182836 1 3 cbr 210 ------- 1 0.0 3.0 46 46
+ 2.18375 0 1 cbr 210 ------- 1 0.0 3.0 49 49
- 2.18375 0 1 cbr 210 ------- 1 0.0 3.0 49 49
r 2.185168 0 1 cbr 210 ------- 1 0.0 3.0 48 48
+ 2.185168 1 3 cbr 210 ------- 1 0.0 3.0 48 48
- 2.185168 1 3 cbr 210 ------- 1 0.0 3.0 48 48
r 2.186586 1 3 cbr 210 ------- 1 0.0 3.0 47 47
+ 2.1875 0 1 cbr 210 ------- 1 0.0 3.0 50 50
- 2.1875 0 1 cbr 210 ------- 1 0.0 3.0 50 50
r 2.188918 0 1 cbr 210 ------- 1 0.0 3.0 49 49
+ 2.188918 1 3 cbr 210 ------- 1 0.0 3.0 49 49
- 2.188918 1 3 cbr 210 ------- 1 0.0 3.0 49 49
r 2.190336 1 3 cbr 210 ------- 1 0.0 3.0 48 48
+ 2.19125 0 1 cbr 210 ------- 1 0.0 3.0 51 51
- 2.19125 0 1 cbr 210 ------- 1 0.0 3.0 51 51
r 2.192668 0 1 cbr 210 ------- 1 0.0 3.0 50 50
+ 2.192668 1 3 cbr 210 ------- 1 0.0 3.0 50 50
- 2.192668 1 3 cbr 210 ------- 1 0.0 3.0 50 50
r 2.194086 1 3 cbr 210 ------- 1 0.0 3.0 49 49
+ 2.195 0 1 cbr 210 ------- 1 0.0 3.0 52 52
- 2.195 0 1 cbr 210 ------- 1 0.0 3.0 52 52
r 2.196418 0 1 cbr 210 ------- 1 0.0 3.0 51 51
+ 2.196418 1 3 cbr 210 ------- 1 0.0 3.0 51 51
- 2.196418 1 3 cbr 210 ------- 1 0.0 3.0 51 51
r 2.197836 1 3 cbr 210 ------- 1 0.0 3.0 50 50
+ 2.19875 0 1 cbr 210 ------- 1 0.0 3.0 53 53
- 2.19875 0 1 cbr 210 ------- 1 0.0 3.0 53 53
r 2.200168 0 1 cbr 210 ------- 1 0.0 3.0 52 52
+ 2.200168 1 3 cbr 210 ------- 1 0.0 3.0 52 52
- 2.200168 1 3 cbr 210 ------- 1 0.0 3.0 52 52
r 2.201586 1 3 cbr 210 ------- 1 0.0 3.0 51 51
+ 2.2025 0 1 cbr 210 ------- 1 0.0 3.0 54 54
- 2.2025 0 1 cbr 210 ------- 1 0.0 3.0 54 54
r 2.203918 0 1 cbr 210 ------- 1 0.0 3.0 53 53
+ 2.203918 1 3 cbr 210 ------- 1 0.0 3.0 53 53
- 2.203918 1 3 cbr 210 ------- 1 0.0 3.0 53 53
r 2.205336 1 3 cbr 210 ------- 1 0.0 3.0 52 52
+ 2.20625 0 1 cbr 210 ------- 1 0.0 3.0 55 55
- 2.20625 0 1 cbr 210 ------- 1 0.0 3.0 55 55
r 2.207668 0 1 cbr 210 ------- 1 0.0 3.0 54 54
+ 2.207668 1 3 cbr 210 ------- 1 0.0 3.0 54 54
- 2.207668 1 3 cbr 210 ------- 1 0.0 3.0 54 54
r 2.209086 1 3 cbr 210 ------- 1 0.0 3.0 53 53
+ 2.21 0 1 cbr 210 ------- 1 0.0 3.0 56 56
- 2.21 0 1 cbr 210 ------- 1 0.0 3.0 56 56
r 2.211418 0 1 cbr 210 ------- 1 0.0 3.0 55 55
+ 2.211418 1 3 cbr 210 ------- 1 0.0 3.0 55 55
- 2.211418 1 3 cbr 210 ------- 1 0.0 3.0 55 55
r 2.212836 1 3 cbr 210 ------- 1 0.0 3.0 54 54
+ 2.21375 0 1 cbr 210 ------- 1 0.0 3.0 57 57
- 2.21375 0 1 cbr 210 ------- 1 0.0 3.0 57 57
r 2.215168 0 1 cbr 210 ------- 1 0.0 3.0 56 56
+ 2.215168 1 3 cbr 210 ------- 1 0.0 3.0 56 56
- 2.215168 1 3 cbr 210 ------- 1 0.0 3.0 56 56
r 2.216586 1 3 cbr 210 ------- 1 0.0 3.0 55 55
+ 2.2175 0 1 cbr 210 ------- 1 0.0 3.0 58 58
- 2.2175 0 1 cbr 210 ------- 1 0.0 3.0 58 58
r 2.218918 0 1 cbr 210 ------- 1 0.0 3.0 57 57
+ 2.218918 1 3 cbr 210 ------- 1 0.0 3.0 57 57
- 2.218918 1 3 cbr 210 ------- 1 0.0 3.0 57 57
r 2.220336 1 3 cbr 210 ------- 1 0.0 3.0 56 56
+ 2.22125 0 1 cbr 210 ------- 1 0.0 3.0 59 59
- 2.22125 0 1 cbr 210 ------- 1 0.0 3.0 59 59
r 2.222668 0 1 cbr 210 ------- 1 0.0 3.0 58 58
+ 2.222668 1 3 cbr 210 ------- 1 0.0 3.0 58 58
- 2.222668 1 3 cbr 210 ------- 1 0.0 3.0 58 58
r 2.224086 1 3 cbr 210 ------- 1 0.0 3.0 57 57
+ 2.225 0 1 cbr 210 ------- 1 0.0 3.0 60 60
- 2.225 0 1 cbr 210 ------- 1 0.0 3.0 60 60
r 2.226418 0 1 cbr 210 ------- 1 0.0 3.0 59 59
+ 2.226418 1 3 cbr 210 ------- 1 0.0 3.0 59 59
- 2.226418 1 3 cbr 210 ------- 1 0.0 3.0 59 59
r 2.227836 1 3 cbr 210 ------- 1 0.0 3.0 58 58
+ 2.22875 0 1 cbr 210 ------- 1 0.0 3.0 61 61
- 2.22875 0 1 cbr 210 ------- 1 0.0 3.0 61 61
r 2.230168 0 1 cbr 210 ------- 1 0.0 3.0 60 60
+ 2.230168 1 3 cbr 210 ------- 1 0.0 3.0 60 60
- 2.230168 1 3 cbr 210 ------- 1 0.0 3.0 60 60
r 2.231586 1 3 cbr 210 ------- 1 0.0 3.0 59 59
+ 2.2325 0 1 cbr 210 ------- 1 0.0 3.0 62 62
- 2.2325 0 1 cbr 210 ------- 1 0.0 3.0 62 62
r 2.233918 0 1 cbr 210 ------- 1 0.0 3.0 61 61
+ 2.233918 1 3 cbr 210 ------- 1 0.0 3.0 61 61
- 2.233918 1 3 cbr 210 ------- 1 0.0 3.0 61 61
r 2.235336 1 3 cbr 210 ------- 1 0.0 3.0 60 60
+ 2.23625 0 1 cbr 210 ------- 1 0.0 3.0 63 63
- 2.23625 0 1 cbr 210 ------- 1 0.0 3.0 63 63
r 2.237668 0 1 cbr 210 ------- 1 0.0 3.0 62 62
+ 2.237668 1 3 cbr 210 ------- 1 0.0 3.0 62 62
- 2.237668 1 3 cbr 210 ------- 1 0.0 3.0 62 62
r 2.239086 1 3 cbr 210 ------- 1 0.0 3.0 61 61
+ 2.24 0 1 cbr 210 ------- 1 0.0 3.0 64 64
- 2.24 0 1 cbr 210 ------- 1 0.0 3.0 64 64
r 2.241418 0 1 cbr 210 ------- 1 0.0 3.0 63 63
+ 2.241418 1 3 cbr 210 ------- 1 0.0 3.0 63 63
- 2.241418 1 3 cbr 210 ------- 1 0.0 3.0 63 63
r 2.242836 1 3 cbr 210 ------- 1 0.0 3.0 62 62
+ 2.24375 0 1 cbr 210 ------- 1 0.0 3.0 65 65
- 2.24375 0 1 cbr 210 ------- 1 0.0 3.0 65 65
r 2.245168 0 1 cbr 210 ------- 1 0.0 3.0 64 64
+ 2.245168 1 3 cbr 210 ------- 1 0.0 3.0 64 64
- 2.245168 1 3 cbr 210 ------- 1 0.0 3.0 64 64
r 2.246586 1 3 cbr 210 ------- 1 0.0 3.0 63 63
+ 2.2475 0 1 cbr 210 ------- 1 0.0 3.0 66 66
- 2.2475 0 1 cbr 210 ------- 1 0.0 3.0 66 66
r 2.248918 0 1 cbr 210 ------- 1 0.0 3.0 65 65
+ 2.248918 1 3 cbr 210 ------- 1 0.0 3.0 65 65
- 2.248918 1 3 cbr 210 ------- 1 0.0 3.0 65 65
r 2.250336 1 3 cbr 210 ------- 1 0.0 3.0 64 64
+ 2.25125 0 1 cbr 210 ------- 1 0.0 3.0 67 67
- 2.25125 0 1 cbr 210 ------- 1 0.0 3.0 67 67
r 2.252668 0 1 cbr 210 ------- 1 0.0 3.0 66 66
+ 2.252668 1 3 cbr 210 ------- 1 0.0 3.0 66 66
- 2.252668 1 3 cbr 210 ------- 1 0.0 3.0 66 66
r 2.254086 1 3 cbr 210 ------- 1 0.0 3.0 65 65
+ 2.255 0 1 cbr 210 ------- 1 0.0 3.0 68 68
- 2.255 0 1 cbr 210 ------- 1 0.0 3.0 68 68
r 2.256418 0 1 cbr 210 ------- 1 0.0 3.0 67 67
+ 2.256418 1 3 cbr 210 ------- 1 0.0 3.0 67 67
- 2.256418 1 3 cbr 210 ------- 1 0.0 3.0 67 67
r 2.257836 1 3 cbr 210 ------- 1 0.0 3.0 66 66
+ 2.25875 0 1 cbr 210 ------- 1 0.0 3.0 69 69
- 2.25875 0 1 cbr 210 ------- 1 0.0 3.0 69 69
r 2.260168 0 1 cbr 210 ------- 1 0.0 3.0 68 68
+ 2.260168 1 3 cbr 210 ------- 1 0.0 3.0 68 68
- 2.260168 1 3 cbr 210 ------- 1 0.0 3.0 68 68
r 2.261586 1 3 cbr 210 ------- 1 0.0 3.0 67 67
+ 2.2625 0 1 cbr 210 ------- 1 0.0 3.0 70 70
- 2.2625 0 1 cbr 210 ------- 1 0.0 3.0 70 70
r 2.263918 0 1 cbr 210 ------- 1 0.0 3.0 69 69
+ 2.263918 1 3 cbr 210 ------- 1 0.0 3.0 69 69
- 2.263918 1 3 cbr 210 ------- 1 0.0 3.0 69 69
r 2.265336 1 3 cbr 210 ------- 1 0.0 3.0 68 68
+ 2.26625 0 1 cbr 210 ------- 1 0.0 3.0 71 71
- 2.26625 0 1 cbr 210 ------- 1 0.0 3.0 71 71
r 2.267668 0 1 cbr 210 ------- 1 0.0 3.0 70 70
+ 2.267668 1 3 cbr 210 ------- 1 0.0 3.0 70 70
- 2.267668 1 3 cbr 210 ------- 1 0.0 3.0 70 70
r 2.269086 1 3 cbr 210 ------- 1 0.0 3.0 69 69
+ 2.27 0 1 cbr 210 ------- 1 0.0 3.0 72 72
- 2.27 0 1 cbr 210 ------- 1 0.0 3.0 72 72
r 2.271418 0 1 cbr 210 ------- 1 0.0 3.0 71 71
+ 2.271418 1 3 cbr 210 ------- 1 0.0 3.0 71 71
- 2.271418 1 3 cbr 210 ------- 1 0.0 3.0 71 71
r 2.272836 1 3 cbr 210 ------- 1 0.0 3.0 70 70
+ 2.27375 0 1 cbr 210 ------- 1 0.0 3.0 73 73
- 2.27375 0 1 cbr 210 ------- 1 0.0 3.0 73 73
r 2.275168 0 1 cbr 210 ------- 1 0.0 3.0 72 72
+ 2.275168 1 3 cbr 210 ------- 1 0.0 3.0 72 72
- 2.275168 1 3 cbr 210 ------- 1 0.0 3.0 72 72
r 2.276586 1 3 cbr 210 ------- 1 0.0 3.0 71 71
+ 2.2775 0 1 cbr 210 ------- 1 0.0 3.0 74 74
- 2.2775 0 1 cbr 210 ------- 1 0.0 3.0 74 74
r 2.278918 0 1 cbr 210 ------- 1 0.0 3.0 73 73
+ 2.278918 1 3 cbr 210 ------- 1 0.0 3.0 73 73
- 2.278918 1 3 cbr 210 ------- 1 0.0 3.0 73 73
r 2.280336 1 3 cbr 210 ------- 1 0.0 3.0 72 72
+ 2.28125 0 1 cbr 210 ------- 1 0.0 3.0 75 75
- 2.28125 0 1 cbr 210 ------- 1 0.0 3.0 75 75
r 2.282668 0 1 cbr 210 ------- 1 0.0 3.0 74 74
+ 2.282668 1 3 cbr 210 ------- 1 0.0 3.0 74 74
- 2.282668 1 3 cbr 210 ------- 1 0.0 3.0 74 74
r 2.284086 1 3 cbr 210 ------- 1 0.0 3.0 73 73
+ 2.285 0 1 cbr 210 ------- 1 0.0 3.0 76 76
- 2.285 0 1 cbr 210 ------- 1 0.0 3.0 76 76
r 2.286418 0 1 cbr 210 ------- 1 0.0 3.0 75 75
+ 2.286418 1 3 cbr 210 ------- 1 0.0 3.0 75 75
- 2.286418 1 3 cbr 210 ------- 1 0.0 3.0 75 75
r 2.287836 1 3 cbr 210 ------- 1 0.0 3.0 74 74
+ 2.28875 0 1 cbr 210 ------- 1 0.0 3.0 77 77
- 2.28875 0 1 cbr 210 ------- 1 0.0 3.0 77 77
r 2.290168 0 1 cbr 210 ------- 1 0.0 3.0 76 76
+ 2.290168 1 3 cbr 210 ------- 1 0.0 3.0 76 76
- 2.290168 1 3 cbr 210 ------- 1 0.0 3.0 76 76
r 2.291586 1 3 cbr 210 ------- 1 0.0 3.0 75 75
+ 2.2925 0 1 cbr 210 ------- 1 0.0 3.0 78 78
- 2.2925 0 1 cbr 210 ------- 1 0.0 3.0 78 78
r 2.293918 0 1 cbr 210 ------- 1 0.0 3.0 77 77
+ 2.293918 1 3 cbr 210 ------- 1 0.0 3.0 77 77
- 2.293918 1 3 cbr 210 ------- 1 0.0 3.0 77 77
r 2.295336 1 3 cbr 210 ------- 1 0.0 3.0 76 76
+ 2.29625 0 1 cbr 210 ------- 1 0.0 3.0 79 79
- 2.29625 0 1 cbr 210 ------- 1 0.0 3.0 79 79
r 2.297668 0 1 cbr 210 ------- 1 0.0 3.0 78 78
+ 2.297668 1 3 cbr 210 ------- 1 0.0 3.0 78 78
- 2.297668 1 3 cbr 210 ------- 1 0.0 3.0 78 78
r 2.299086 1 3 cbr 210 ------- 1 0.0 3.0 77 77
+ 2.3 0 1 cbr 210 ------- 1 0.0 3.0 80 80
- 2.3 0 1 cbr 210 ------- 1 0.0 3.0 80 80
r 2.301418 0 1 cbr 210 ------- 1 0.0 3.0 79 79
+ 2.301418 1 3 cbr 210 ------- 1 0.0 3.0 79 79
- 2.301418 1 3 cbr 210 ------- 1 0.0 3.0 79 79
r 2.302836 1 3 cbr 210 ------- 1 0.0 3.0 78 78
+ 2.30375 0 1 cbr 210 ------- 1 0.0 3.0 81 81
- 2.30375 0 1 cbr 210 ------- 1 0.0 3.0 81 81
r 2.305168 0 1 cbr 210 ------- 1 0.0 3.0 80 80
+ 2.305168 1 3 cbr 210 ------- 1 0.0 3.0 80 80
- 2.305168 1 3 cbr 210 ------- 1 0.0 3.0 80 80
r 2.306586 1 3 cbr 210 ------- 1 0.0 3.0 79 79
+ 2.3075 0 1 cbr 210 ------- 1 0.0 3.0 82 82
- 2.3075 0 1 cbr 210 ------- 1 0.0 3.0 82 82
r 2.308918 0 1 cbr 210 ------- 1 0.0 3.0 81 81
+ 2.308918 1 3 cbr 210 ------- 1 0.0 3.0 81 81
- 2.308918 1 3 cbr 210 ------- 1 0.0 3.0 81 81
r 2.310336 1 3 cbr 210 ------- 1 0.0 3.0 80 80
+ 2.31125 0 1 cbr 210 ------- 1 0.0 3.0 83 83
- 2.31125 0 1 cbr 210 ------- 1 0.0 3.0 83 83
r 2.312668 0 1 cbr 210 ------- 1 0.0 3.0 82 82
+ 2.312668 1 3 cbr 210 ------- 1 0.0 3.0 82 82
- 2.312668 1 3 cbr 210 ------- 1 0.0 3.0 82 82
r 2.314086 1 3 cbr 210 ------- 1 0.0 3.0 81 81
+ 2.315 0 1 cbr 210 ------- 1 0.0 3.0 84 84
- 2.315 0 1 cbr 210 ------- 1 0.0 3.0 84 84
r 2.316418 0 1 cbr 210 ------- 1 0.0 3.0 83 83
+ 2.316418 1 3 cbr 210 ------- 1 0.0 3.0 83 83
- 2.316418 1 3 cbr 210 ------- 1 0.0 3.0 83 83
r 2.317836 1 3 cbr 210 ------- 1 0.0 3.0 82 82
+ 2.31875 0 1 cbr 210 ------- 1 0.0 3.0 85 85
- 2.31875 0 1 cbr 210 ------- 1 0.0 3.0 85 85
r 2.320168 0 1 cbr 210 ------- 1 0.0 3.0 84 84
+ 2.320168 1 3 cbr 210 ------- 1 0.0 3.0 84 84
- 2.320168 1 3 cbr 210 ------- 1 0.0 3.0 84 84
r 2.321586 1 3 cbr 210 ------- 1 0.0 3.0 83 83
+ 2.3225 0 1 cbr 210 ------- 1 0.0 3.0 86 86
- 2.3225 0 1 cbr 210 ------- 1 0.0 3.0 86 86
r 2.323918 0 1 cbr 210 ------- 1 0.0 3.0 85 85
+ 2.323918 1 3 cbr 210 ------- 1 0.0 3.0 85 85
- 2.323918 1 3 cbr 210 ------- 1 0.0 3.0 85 85
r 2.325336 1 3 cbr 210 ------- 1 0.0 3.0 84 84
+ 2.32625 0 1 cbr 210 ------- 1 0.0 3.0 87 87
- 2.32625 0 1 cbr 210 ------- 1 0.0 3.0 87 87
r 2.327668 0 1 cbr 210 ------- 1 0.0 3.0 86 86
+ 2.327668 1 3 cbr 210 ------- 1 0.0 3.0 86 86
- 2.327668 1 3 cbr 210 ------- 1 0.0 3.0 86 86
r 2.329086 1 3 cbr 210 ------- 1 0.0 3.0 85 85
+ 2.33 0 1 cbr 210 ------- 1 0.0 3.0 88 88
- 2.33 0 1 cbr 210 ------- 1 0.0 3.0 88 88
r 2.331418 0 1 cbr 210 ------- 1 0.0 3.0 87 87
+ 2.331418 1 3 cbr 210 ------- 1 0.0 3.0 87 87
- 2.331418 1 3 cbr 210 ------- 1 0.0 3.0 87 87
r 2.332836 1 3 cbr 210 ------- 1 0.0 3.0 86 86
+ 2.33375 0 1 cbr 210 ------- 1 0.0 3.0 89 89
- 2.33375 0 1 cbr 210 ------- 1 0.0 3.0 89 89
r 2.335168 0 1 cbr 210 ------- 1 0.0 3.0 88 88
+ 2.335168 1 3 cbr 210 ------- 1 0.0 3.0 88 88
- 2.335168 1 3 cbr 210 ------- 1 0.0 3.0 88 88
r 2.336586 1 3 cbr 210 ------- 1 0.0 3.0 87 87
+ 2.3375 0 1 cbr 210 ------- 1 0.0 3.0 90 90
- 2.3375 0 1 cbr 210 ------- 1 0.0 3.0 90 90
r 2.338918 0 1 cbr 210 ------- 1 0.0 3.0 89 89
+ 2.338918 1 3 cbr 210 ------- 1 0.0 3.0 89 89
- 2.338918 1 3 cbr 210 ------- 1 0.0 3.0 89 89
r 2.340336 1 3 cbr 210 ------- 1 0.0 3.0 88 88
+ 2.34125 0 1 cbr 210 ------- 1 0.0 3.0 91 91
- 2.34125 0 1 cbr 210 ------- 1 0.0 3.0 91 91
r 2.342668 0 1 cbr 210 ------- 1 0.0 3.0 90 90
+ 2.342668 1 3 cbr 210 ------- 1 0.0 3.0 90 90
- 2.342668 1 3 cbr 210 ------- 1 0.0 3.0 90 90
r 2.344086 1 3 cbr 210 ------- 1 0.0 3.0 89 89
+ 2.345 0 1 cbr 210 ------- 1 0.0 3.0 92 92
- 2.345 0 1 cbr 210 ------- 1 0.0 3.0 92 92
r 2.346418 0 1 cbr 210 ------- 1 0.0 3.0 91 91
+ 2.346418 1 3 cbr 210 ------- 1 0.0 3.0 91 91
- 2.346418 1 3 cbr 210 ------- 1 0.0 3.0 91 91
r 2.347836 1 3 cbr 210 ------- 1 0.0 3.0 90 90
+ 2.34875 0 1 cbr 210 ------- 1 0.0 3.0 93 93
- 2.34875 0 1 cbr 210 ------- 1 0.0 3.0 93 93
r 2.350168 0 1 cbr 210 ------- 1 0.0 3.0 92 92
+ 2.350168 1 3 cbr 210 ------- 1 0.0 3.0 92 92
- 2.350168 1 3 cbr 210 ------- 1 0.0 3.0 92 92
r 2.351586 1 3 cbr 210 ------- 1 0.0 3.0 91 91
+ 2.3525 0 1 cbr 210 ------- 1 0.0 3.0 94 94
- 2.3525 0 1 cbr 210 ------- 1 0.0 3.0 94 94
r 2.353918 0 1 cbr 210 ------- 1 0.0 3.0 93 93
+ 2.353918 1 3 cbr 210 ------- 1 0.0 3.0 93 93
- 2.353918 1 3 cbr 210 ------- 1 0.0 3.0 93 93
r 2.355336 1 3 cbr 210 ------- 1 0.0 3.0 92 92
+ 2.35625 0 1 cbr 210 ------- 1 0.0 3.0 95 95
- 2.35625 0 1 cbr 210 ------- 1 0.0 3.0 95 95
r 2.357668 0 1 cbr 210 ------- 1 0.0 3.0 94 94
+ 2.357668 1 3 cbr 210 ------- 1 0.0 3.0 94 94
- 2.357668 1 3 cbr 210 ------- 1 0.0 3.0 94 94
r 2.359086 1 3 cbr 210 ------- 1 0.0 3.0 93 93
+ 2.36 0 1 cbr 210 ------- 1 0.0 3.0 96 96
- 2.36 0 1 cbr 210 ------- 1 0.0 3.0 96 96
r 2.361418 0 1 cbr 210 ------- 1 0.0 3.0 95 95
+ 2.361418 1 3 cbr 210 ------- 1 0.0 3.0 95 95
- 2.361418 1 3 cbr 210 ------- 1 0.0 3.0 95 95
r 2.362836 1 3 cbr 210 ------- 1 0.0 3.0 94 94
+ 2.36375 0 1 cbr 210 ------- 1 0.0 3.0 97 97
- 2.36375 0 1 cbr 210 ------- 1 0.0 3.0 97 97
r 2.365168 0 1 cbr 210 ------- 1 0.0 3.0 96 96
+ 2.365168 1 3 cbr 210 ------- 1 0.0 3.0 96 96
- 2.365168 1 3 cbr 210 ------- 1 0.0 3.0 96 96
r 2.366586 1 3 cbr 210 ------- 1 0.0 3.0 95 95
+ 2.3675 0 1 cbr 210 ------- 1 0.0 3.0 98 98
- 2.3675 0 1 cbr 210 ------- 1 0.0 3.0 98 98
r 2.368918 0 1 cbr 210 ------- 1 0.0 3.0 97 97
+ 2.368918 1 3 cbr 210 ------- 1 0.0 3.0 97 97
- 2.368918 1 3 cbr 210 ------- 1 0.0 3.0 97 97
r 2.370336 1 3 cbr 210 ------- 1 0.0 3.0 96 96
+ 2.37125 0 1 cbr 210 ------- 1 0.0 3.0 99 99
- 2.37125 0 1 cbr 210 ------- 1 0.0 3.0 99 99
r 2.372668 0 1 cbr 210 ------- 1 0.0 3.0 98 98
+ 2.372668 1 3 cbr 210 ------- 1 0.0 3.0 98 98
- 2.372668 1 3 cbr 210 ------- 1 0.0 3.0 98 98
r 2.374086 1 3 cbr 210 ------- 1 0.0 3.0 97 97
+ 2.375 0 1 cbr 210 ------- 1 0.0 3.0 100 100
- 2.375 0 1 cbr 210 ------- 1 0.0 3.0 100 100
r 2.376418 0 1 cbr 210 ------- 1 0.0 3.0 99 99
+ 2.376418 1 3 cbr 210 ------- 1 0.0 3.0 99 99
- 2.376418 1 3 cbr 210 ------- 1 0.0 3.0 99 99
r 2.377836 1 3 cbr 210 ------- 1 0.0 3.0 98 98
+ 2.37875 0 1 cbr 210 ------- 1 0.0 3.0 101 101
- 2.37875 0 1 cbr 210 ------- 1 0.0 3.0 101 101
r 2.380168 0 1 cbr 210 ------- 1 0.0 3.0 100 100
+ 2.380168 1 3 cbr 210 ------- 1 0.0 3.0 100 100
- 2.380168 1 3 cbr 210 ------- 1 0.0 3.0 100 100
r 2.381586 1 3 cbr 210 ------- 1 0.0 3.0 99 99
+ 2.3825 0 1 cbr 210 ------- 1 0.0 3.0 102 102
- 2.3825 0 1 cbr 210 ------- 1 0.0 3.0 102 102
r 2.383918 0 1 cbr 210 ------- 1 0.0 3.0 101 101
+ 2.383918 1 3 cbr 210 ------- 1 0.0 3.0 101 101
- 2.383918 1 3 cbr 210 ------- 1 0.0 3.0 101 101
r 2.385336 1 3 cbr 210 ------- 1 0.0 3.0 100 100
+ 2.38625 0 1 cbr 210 ------- 1 0.0 3.0 103 103
- 2.38625 0 1 cbr 210 ------- 1 0.0 3.0 103 103
r 2.387668 0 1 cbr 210 ------- 1 0.0 3.0 102 102
+ 2.387668 1 3 cbr 210 ------- 1 0.0 3.0 102 102
- 2.387668 1 3 cbr 210 ------- 1 0.0 3.0 102 102
r 2.389086 1 3 cbr 210 ------- 1 0.0 3.0 101 101
+ 2.39 0 1 cbr 210 ------- 1 0.0 3.0 104 104
- 2.39 0 1 cbr 210 ------- 1 0.0 3.0 104 104
r 2.391418 0 1 cbr 210 ------- 1 0.0 3.0 103 103
+ 2.391418 1 3 cbr 210 ------- 1 0.0 3.0 103 103
- 2.391418 1 3 cbr 210 ------- 1 0.0 3.0 103 103
r 2.392836 1 3 cbr 210 ------- 1 0.0 3.0 102 102
+ 2.39375 0 1 cbr 210 ------- 1 0.0 3.0 105 105
- 2.39375 0 1 cbr 210 ------- 1 0.0 3.0 105 105
r 2.395168 0 1 cbr 210 ------- 1 0.0 3.0 104 104
+ 2.395168 1 3 cbr 210 ------- 1 0.0 3.0 104 104
- 2.395168 1 3 cbr 210 ------- 1 0.0 3.0 104 104
r 2.396586 1 3 cbr 210 ------- 1 0.0 3.0 103 103
+ 2.3975 0 1 cbr 210 ------- 1 0.0 3.0 106 106
- 2.3975 0 1 cbr 210 ------- 1 0.0 3.0 106 106
r 2.398918 0 1 cbr 210 ------- 1 0.0 3.0 105 105
+ 2.398918 1 3 cbr 210 ------- 1 0.0 3.0 105 105
- 2.398918 1 3 cbr 210 ------- 1 0.0 3.0 105 105
r 2.400336 1 3 cbr 210 ------- 1 0.0 3.0 104 104
+ 2.40125 0 1 cbr 210 ------- 1 0.0 3.0 107 107
- 2.40125 0 1 cbr 210 ------- 1 0.0 3.0 107 107
r 2.402668 0 1 cbr 210 ------- 1 0.0 3.0 106 106
+ 2.402668 1 3 cbr 210 ------- 1 0.0 3.0 106 106
- 2.402668 1 3 cbr 210 ------- 1 0.0 3.0 106 106
r 2.404086 1 3 cbr 210 ------- 1 0.0 3.0 105 105
+ 2.405 0 1 cbr 210 ------- 1 0.0 3.0 108 108
- 2.405 0 1 cbr 210 ------- 1 0.0 3.0 108 108
r 2.406418 0 1 cbr 210 ------- 1 0.0 3.0 107 107
+ 2.406418 1 3 cbr 210 ------- 1 0.0 3.0 107 107